 Entering Gaussian System, Link 0=g16
 Input=Revised-SAH-42C-3-energy-conf-3.com
 Output=Revised-SAH-42C-3-energy-conf-3.log
 Initial command:
 /home/admin/g16/l1.exe "/home/admin/tmp/Gau-329813.inp" -scrdir="/home/admin/tmp/"
 Entering Link 1 = /home/admin/g16/l1.exe PID=    329823.
  
 Copyright (c) 1988,1990,1992,1993,1995,1998,2003,2009,2016,
            Gaussian, Inc.  All Rights Reserved.
  
 This is part of the Gaussian(R) 16 program.  It is based on
 the Gaussian(R) 09 system (copyright 2009, Gaussian, Inc.),
 the Gaussian(R) 03 system (copyright 2003, Gaussian, Inc.),
 the Gaussian(R) 98 system (copyright 1998, Gaussian, Inc.),
 the Gaussian(R) 94 system (copyright 1995, Gaussian, Inc.),
 the Gaussian 92(TM) system (copyright 1992, Gaussian, Inc.),
 the Gaussian 90(TM) system (copyright 1990, Gaussian, Inc.),
 the Gaussian 88(TM) system (copyright 1988, Gaussian, Inc.),
 the Gaussian 86(TM) system (copyright 1986, Carnegie Mellon
 University), and the Gaussian 82(TM) system (copyright 1983,
 Carnegie Mellon University). Gaussian is a federally registered
 trademark of Gaussian, Inc.
  
 This software contains proprietary and confidential information,
 including trade secrets, belonging to Gaussian, Inc.
  
 This software is provided under written license and may be
 used, copied, transmitted, or stored only in accord with that
 written license.
  
 The following legend is applicable only to US Government
 contracts under FAR:
  
                    RESTRICTED RIGHTS LEGEND
  
 Use, reproduction and disclosure by the US Government is
 subject to restrictions as set forth in subparagraphs (a)
 and (c) of the Commercial Computer Software - Restricted
 Rights clause in FAR 52.227-19.
  
 Gaussian, Inc.
 340 Quinnipiac St., Bldg. 40, Wallingford CT 06492
  
  
 ---------------------------------------------------------------
 Warning -- This program may not be used in any manner that
 competes with the business of Gaussian, Inc. or will provide
 assistance to any competitor of Gaussian, Inc.  The licensee
 of this program is prohibited from giving any competitor of
 Gaussian, Inc. access to this program.  By using this program,
 the user acknowledges that Gaussian, Inc. is engaged in the
 business of creating and licensing software in the field of
 computational chemistry and represents and warrants to the
 licensee that it is not a competitor of Gaussian, Inc. and that
 it will not use this program in any manner prohibited above.
 ---------------------------------------------------------------
  

 Cite this work as:
 Gaussian 16, Revision A.03,
 M. J. Frisch, G. W. Trucks, H. B. Schlegel, G. E. Scuseria, 
 M. A. Robb, J. R. Cheeseman, G. Scalmani, V. Barone, 
 G. A. Petersson, H. Nakatsuji, X. Li, M. Caricato, A. V. Marenich, 
 J. Bloino, B. G. Janesko, R. Gomperts, B. Mennucci, H. P. Hratchian, 
 J. V. Ortiz, A. F. Izmaylov, J. L. Sonnenberg, D. Williams-Young, 
 F. Ding, F. Lipparini, F. Egidi, J. Goings, B. Peng, A. Petrone, 
 T. Henderson, D. Ranasinghe, V. G. Zakrzewski, J. Gao, N. Rega, 
 G. Zheng, W. Liang, M. Hada, M. Ehara, K. Toyota, R. Fukuda, 
 J. Hasegawa, M. Ishida, T. Nakajima, Y. Honda, O. Kitao, H. Nakai, 
 T. Vreven, K. Throssell, J. A. Montgomery, Jr., J. E. Peralta, 
 F. Ogliaro, M. J. Bearpark, J. J. Heyd, E. N. Brothers, K. N. Kudin, 
 V. N. Staroverov, T. A. Keith, R. Kobayashi, J. Normand, 
 K. Raghavachari, A. P. Rendell, J. C. Burant, S. S. Iyengar, 
 J. Tomasi, M. Cossi, J. M. Millam, M. Klene, C. Adamo, R. Cammi, 
 J. W. Ochterski, R. L. Martin, K. Morokuma, O. Farkas, 
 J. B. Foresman, and D. J. Fox, Gaussian, Inc., Wallingford CT, 2016.
 
 ******************************************
 Gaussian 16:  ES64L-G16RevA.03 25-Dec-2016
                23-Jun-2021 
 ******************************************
 %mem=20gb
 %nproc=10
 Will use up to   10 processors via shared memory.
 %chk=Revised-SAH-42C-3-conf-3.chk
 ----------------------------------------------------------------------
 # td=(nstates=10,root=1) b3lyp/6-311g(d,p) guess=read geom=check integ
 ral(ultrafinegrid) scrf=(iefpcm,read,solvent=methanol)
 ----------------------------------------------------------------------
 1/29=2,38=1,40=2,172=1/1;
 2/12=2,40=1/2;
 3/5=4,6=6,7=101,11=9,14=-4,25=1,30=1,70=2203,72=3,74=-5,75=-5,116=-2/1,2,3,8;
 4/5=1/1;
 5/5=2,38=6,53=3/2;
 8/6=1,10=2,107=1,108=10/1;
 9/8=1,41=10,42=1,70=2/14;
 6/7=2,8=2,9=2,10=2/1;
 99/5=1,9=1/99;
 ----------------------------------------------------------------------
 Candidate Structure: Revised-SAH-42C-3, Conformer: 3, energy calculati
 on with methanol solvation
 ----------------------------------------------------------------------
 Structure from the checkpoint file:  "Revised-SAH-42C-3-conf-3.chk"
 Charge =  0 Multiplicity = 1
 Redundant internal coordinates found in file.  (old form).
 C,0,1.287665864,6.2260951271,-5.0157973742
 O,0,1.5839752917,7.6077054998,-4.864408593
 H,0,2.2027225745,12.2859953446,-1.8298555561
 C,0,0.2484267594,13.1623902674,-0.2518456048
 C,0,2.2282676032,12.2581199198,1.0028411115
 C,0,1.1338753256,11.9287476696,-0.0201444132
 C,0,-0.1195961369,7.8357131478,-1.2759685949
 C,0,2.0892481664,9.0210663076,-0.7409394454
 C,0,1.1482721452,8.4566207879,-1.8327882733
 H,0,3.5456777087,11.127951622,-3.0477386104
 H,0,2.3063614809,9.9283017493,-4.594948671
 O,0,5.4476076862,9.7952877948,-1.5021201766
 H,0,4.5745679548,7.400048363,-1.9096426363
 C,0,11.0419422739,5.7582106348,-4.3645668532
 C,0,12.3392194906,5.4013738962,-4.716324882
 C,0,12.8059713117,4.1045428799,-4.4734824646
 C,0,11.9633083571,3.166402784,-3.8752487424
 C,0,10.6631711821,3.5238504098,-3.5229220276
 O,0,6.1491506035,5.5239084212,-2.4927951526
 C,0,10.1792490403,4.8230381386,-3.7602914356
 C,0,8.8070674038,5.1389388484,-3.368362077
 C,0,8.1650041411,6.3129178919,-3.5091807688
 C,0,6.7627194885,6.4504099633,-3.0466386328
 O,0,1.8838889946,7.4152357568,-2.5429332773
 C,0,2.7641006528,10.3025121804,-1.252560752
 C,0,1.7040874425,11.4230633951,-1.3644369035
 C,0,0.5835873617,10.9154009476,-2.3164729589
 C,0,0.9296642384,9.5465291387,-2.9034344064
 N,0,6.1726953904,7.6633109412,-3.2484018721
 C,0,6.7284611008,8.8147967763,-3.9907655261
 C,0,5.605458328,9.8663479038,-3.9177258041
 C,0,2.4144060484,7.9385746453,-3.7509086857
 C,0,3.8183182115,7.3890159103,-3.9360317793
 C,0,4.7752302116,7.9001112305,-2.8578461082
 C,0,4.7562964849,9.4302512556,-2.7039014118
 C,0,3.3715724868,10.1123945974,-2.6701452286
 C,0,2.3025796117,9.4645785993,-3.6053488426
 H,0,0.504745406,6.1613728936,-5.7755299724
 H,0,2.1584085202,5.6507639761,-5.3587876521
 H,0,0.9210356723,5.7967215087,-4.0773987018
 H,0,-0.2081566093,13.4989165376,0.6859904505
 H,0,0.8446209113,13.9935777434,-0.6505201553
 H,0,-0.5595087298,12.9611945903,-0.9630571463
 H,0,2.784047798,11.3686215367,1.3151400007
 H,0,2.9483700074,12.9745345352,0.5861898578
 H,0,1.7931162256,12.7096358009,1.9019016416
 H,0,0.4971555361,11.1384696187,0.4048600988
 H,0,-0.7179141521,7.3989554737,-2.0821002908
 H,0,0.1223770691,7.0467729227,-0.5551124134
 H,0,-0.7225587017,8.5914424242,-0.7609626401
 H,0,2.8239052081,8.2503255207,-0.4887416093
 H,0,1.5300479955,9.2391281507,0.1757079615
 H,0,6.2097464707,9.1942024011,-1.4016687648
 H,0,10.6949524834,6.7691542205,-4.5596871974
 H,0,12.9919523116,6.1353207061,-5.1819888096
 H,0,13.8206930373,3.8300977638,-4.7499433442
 H,0,12.3178358684,2.1570954556,-3.6829548136
 H,0,10.0060885031,2.7930254874,-3.056688261
 H,0,8.2442692777,4.3272480804,-2.9092042738
 H,0,8.6538506383,7.1708589276,-3.9586550568
 H,0,3.5625835056,10.6052092129,-0.5779661429
 H,0,-0.3672354659,10.8299015003,-1.7747808879
 H,0,0.4037131794,11.6246648218,-3.1316434365
 H,0,0.1510140234,9.2204158574,-3.5983304391
 H,0,6.9766862406,8.5421915111,-5.021449819
 H,0,7.6426746056,9.1728719012,-3.5054740136
 H,0,5.9891578142,10.8787010432,-3.7722999427
 H,0,5.0035187678,9.8572833139,-4.8321851363
 H,0,4.1742057838,7.6832223572,-4.9290950047
 H,0,3.8099345183,6.2964194581,-3.9004476547
 Recover connectivity data from disk.
                           ----------------------------
                           !    Current Parameters    !
                           ! (Angstroms and Degrees)  !
 --------------------------                            --------------------------
 ! Name  Definition              Value                                          !
 --------------------------------------------------------------------------------
 ! R1    R(1,2)                  1.4211                                         !
 ! R2    R(1,38)                 1.0929                                         !
 ! R3    R(1,39)                 1.0986                                         !
 ! R4    R(1,40)                 1.0952                                         !
 ! R5    R(2,32)                 1.4279                                         !
 ! R6    R(3,26)                 1.1                                            !
 ! R7    R(4,6)                  1.5361                                         !
 ! R8    R(4,41)                 1.096                                          !
 ! R9    R(4,42)                 1.0978                                         !
 ! R10   R(4,43)                 1.095                                          !
 ! R11   R(5,6)                  1.5338                                         !
 ! R12   R(5,44)                 1.0944                                         !
 ! R13   R(5,45)                 1.0979                                         !
 ! R14   R(5,46)                 1.0961                                         !
 ! R15   R(6,26)                 1.5453                                         !
 ! R16   R(6,47)                 1.1003                                         !
 ! R17   R(7,9)                  1.5176                                         !
 ! R18   R(7,48)                 1.0948                                         !
 ! R19   R(7,49)                 1.0957                                         !
 ! R20   R(7,50)                 1.0954                                         !
 ! R21   R(8,9)                  1.548                                          !
 ! R22   R(8,25)                 1.536                                          !
 ! R23   R(8,51)                 1.0942                                         !
 ! R24   R(8,52)                 1.0957                                         !
 ! R25   R(9,24)                 1.4594                                         !
 ! R26   R(9,28)                 1.5434                                         !
 ! R27   R(10,36)                1.0974                                         !
 ! R28   R(11,37)                1.0929                                         !
 ! R29   R(12,35)                1.4337                                         !
 ! R30   R(12,53)                0.9758                                         !
 ! R31   R(13,34)                1.0906                                         !
 ! R32   R(14,15)                1.3907                                         !
 ! R33   R(14,20)                1.4085                                         !
 ! R34   R(14,54)                1.0865                                         !
 ! R35   R(15,16)                1.3995                                         !
 ! R36   R(15,55)                1.087                                          !
 ! R37   R(16,17)                1.3957                                         !
 ! R38   R(16,56)                1.0869                                         !
 ! R39   R(17,18)                1.3936                                         !
 ! R40   R(17,57)                1.0869                                         !
 ! R41   R(18,20)                1.4066                                         !
 ! R42   R(18,58)                1.0878                                         !
 ! R43   R(19,23)                1.2416                                         !
 ! R44   R(20,21)                1.4616                                         !
 ! R45   R(21,22)                1.3455                                         !
 ! R46   R(21,59)                1.0892                                         !
 ! R47   R(22,23)                1.483                                          !
 ! R48   R(22,60)                1.0849                                         !
 ! R49   R(23,29)                1.3638                                         !
 ! R50   R(24,32)                1.4193                                         !
 ! R51   R(25,26)                1.5465                                         !
 ! R52   R(25,36)                1.5539                                         !
 ! R53   R(25,61)                1.0882                                         !
 ! R54   R(26,27)                1.5555                                         !
 ! R55   R(27,28)                1.5291                                         !
 ! R56   R(27,62)                1.0976                                         !
 ! R57   R(27,63)                1.0954                                         !
 ! R58   R(28,37)                1.5441                                         !
 ! R59   R(28,64)                1.0934                                         !
 ! R60   R(29,30)                1.4785                                         !
 ! R61   R(29,34)                1.4702                                         !
 ! R62   R(30,31)                1.5402                                         !
 ! R63   R(30,65)                1.0946                                         !
 ! R64   R(30,66)                1.0952                                         !
 ! R65   R(31,35)                1.5442                                         !
 ! R66   R(31,67)                1.0924                                         !
 ! R67   R(31,68)                1.0948                                         !
 ! R68   R(32,33)                1.519                                          !
 ! R69   R(32,37)                1.537                                          !
 ! R70   R(33,34)                1.5295                                         !
 ! R71   R(33,69)                1.0952                                         !
 ! R72   R(33,70)                1.0932                                         !
 ! R73   R(34,35)                1.538                                          !
 ! R74   R(35,36)                1.544                                          !
 ! R75   R(36,37)                1.5611                                         !
 ! A1    A(2,1,38)             106.3202                                         !
 ! A2    A(2,1,39)             112.1572                                         !
 ! A3    A(2,1,40)             111.0811                                         !
 ! A4    A(38,1,39)            108.6488                                         !
 ! A5    A(38,1,40)            109.4279                                         !
 ! A6    A(39,1,40)            109.1199                                         !
 ! A7    A(1,2,32)             115.4423                                         !
 ! A8    A(6,4,41)             110.956                                          !
 ! A9    A(6,4,42)             110.4738                                         !
 ! A10   A(6,4,43)             112.0685                                         !
 ! A11   A(41,4,42)            107.7279                                         !
 ! A12   A(41,4,43)            107.7466                                         !
 ! A13   A(42,4,43)            107.694                                          !
 ! A14   A(6,5,44)             112.2186                                         !
 ! A15   A(6,5,45)             110.793                                          !
 ! A16   A(6,5,46)             110.624                                          !
 ! A17   A(44,5,45)            107.7928                                         !
 ! A18   A(44,5,46)            107.5989                                         !
 ! A19   A(45,5,46)            107.6292                                         !
 ! A20   A(4,6,5)              109.8418                                         !
 ! A21   A(4,6,26)             110.1384                                         !
 ! A22   A(4,6,47)             107.5493                                         !
 ! A23   A(5,6,26)             112.779                                          !
 ! A24   A(5,6,47)             108.0298                                         !
 ! A25   A(26,6,47)            108.3319                                         !
 ! A26   A(9,7,48)             110.4651                                         !
 ! A27   A(9,7,49)             110.5777                                         !
 ! A28   A(9,7,50)             110.4937                                         !
 ! A29   A(48,7,49)            108.5336                                         !
 ! A30   A(48,7,50)            108.6986                                         !
 ! A31   A(49,7,50)            107.9989                                         !
 ! A32   A(9,8,25)             109.6544                                         !
 ! A33   A(9,8,51)             108.2915                                         !
 ! A34   A(9,8,52)             110.6357                                         !
 ! A35   A(25,8,51)            111.68                                           !
 ! A36   A(25,8,52)            109.6857                                         !
 ! A37   A(51,8,52)            106.8591                                         !
 ! A38   A(7,9,8)              113.4685                                         !
 ! A39   A(7,9,24)             107.9204                                         !
 ! A40   A(7,9,28)             115.1586                                         !
 ! A41   A(8,9,24)             107.278                                          !
 ! A42   A(8,9,28)             108.5363                                         !
 ! A43   A(24,9,28)            103.7537                                         !
 ! A44   A(35,12,53)           107.8215                                         !
 ! A45   A(15,14,20)           120.6304                                         !
 ! A46   A(15,14,54)           119.422                                          !
 ! A47   A(20,14,54)           119.9476                                         !
 ! A48   A(14,15,16)           120.3307                                         !
 ! A49   A(14,15,55)           119.6871                                         !
 ! A50   A(16,15,55)           119.9822                                         !
 ! A51   A(15,16,17)           119.7263                                         !
 ! A52   A(15,16,56)           120.0791                                         !
 ! A53   A(17,16,56)           120.1946                                         !
 ! A54   A(16,17,18)           119.9467                                         !
 ! A55   A(16,17,57)           120.2028                                         !
 ! A56   A(18,17,57)           119.8505                                         !
 ! A57   A(17,18,20)           121.0109                                         !
 ! A58   A(17,18,58)           119.9716                                         !
 ! A59   A(20,18,58)           119.0175                                         !
 ! A60   A(14,20,18)           118.355                                          !
 ! A61   A(14,20,21)           123.1307                                         !
 ! A62   A(18,20,21)           118.5143                                         !
 ! A63   A(20,21,22)           127.483                                          !
 ! A64   A(20,21,59)           115.9164                                         !
 ! A65   A(22,21,59)           116.6005                                         !
 ! A66   A(21,22,23)           119.9659                                         !
 ! A67   A(21,22,60)           121.2204                                         !
 ! A68   A(23,22,60)           118.8136                                         !
 ! A69   A(19,23,22)           122.4947                                         !
 ! A70   A(19,23,29)           121.0534                                         !
 ! A71   A(22,23,29)           116.4489                                         !
 ! A72   A(9,24,32)            109.842                                          !
 ! A73   A(8,25,26)            109.1131                                         !
 ! A74   A(8,25,36)            111.9345                                         !
 ! A75   A(8,25,61)            110.3619                                         !
 ! A76   A(26,25,36)           106.8938                                         !
 ! A77   A(26,25,61)           110.256                                          !
 ! A78   A(36,25,61)           108.2217                                         !
 ! A79   A(3,26,6)             106.1787                                         !
 ! A80   A(3,26,25)            106.7574                                         !
 ! A81   A(3,26,27)            108.8817                                         !
 ! A82   A(6,26,25)            115.2828                                         !
 ! A83   A(6,26,27)            111.9268                                         !
 ! A84   A(25,26,27)           107.5499                                         !
 ! A85   A(26,27,28)           111.3506                                         !
 ! A86   A(26,27,62)           110.3264                                         !
 ! A87   A(26,27,63)           111.2497                                         !
 ! A88   A(28,27,62)           108.407                                          !
 ! A89   A(28,27,63)           109.3387                                         !
 ! A90   A(62,27,63)           105.9886                                         !
 ! A91   A(9,28,27)            113.451                                          !
 ! A92   A(9,28,37)             98.7384                                         !
 ! A93   A(9,28,64)            109.3369                                         !
 ! A94   A(27,28,37)           115.0394                                         !
 ! A95   A(27,28,64)           110.4743                                         !
 ! A96   A(37,28,64)           109.1748                                         !
 ! A97   A(23,29,30)           127.1792                                         !
 ! A98   A(23,29,34)           121.0087                                         !
 ! A99   A(30,29,34)           111.4227                                         !
 ! A100  A(29,30,31)           103.5234                                         !
 ! A101  A(29,30,65)           111.3498                                         !
 ! A102  A(29,30,66)           110.2383                                         !
 ! A103  A(31,30,65)           112.3347                                         !
 ! A104  A(31,30,66)           111.3703                                         !
 ! A105  A(65,30,66)           108.0197                                         !
 ! A106  A(30,31,35)           104.2061                                         !
 ! A107  A(30,31,67)           112.5156                                         !
 ! A108  A(30,31,68)           110.831                                          !
 ! A109  A(35,31,67)           110.5016                                         !
 ! A110  A(35,31,68)           110.6019                                         !
 ! A111  A(67,31,68)           108.1795                                         !
 ! A112  A(2,32,24)            111.1532                                         !
 ! A113  A(2,32,33)            111.0169                                         !
 ! A114  A(2,32,37)            105.1646                                         !
 ! A115  A(24,32,33)           108.4084                                         !
 ! A116  A(24,32,37)           104.9683                                         !
 ! A117  A(33,32,37)           115.9761                                         !
 ! A118  A(32,33,34)           111.8043                                         !
 ! A119  A(32,33,69)           108.2803                                         !
 ! A120  A(32,33,70)           110.5204                                         !
 ! A121  A(34,33,69)           110.2507                                         !
 ! A122  A(34,33,70)           108.4105                                         !
 ! A123  A(69,33,70)           107.4875                                         !
 ! A124  A(13,34,29)           109.39                                           !
 ! A125  A(13,34,33)           110.1545                                         !
 ! A126  A(13,34,35)           111.524                                          !
 ! A127  A(29,34,33)           110.7075                                         !
 ! A128  A(29,34,35)           101.4514                                         !
 ! A129  A(33,34,35)           113.2854                                         !
 ! A130  A(12,35,31)           108.7741                                         !
 ! A131  A(12,35,34)           109.3468                                         !
 ! A132  A(12,35,36)           107.5559                                         !
 ! A133  A(31,35,34)           101.2749                                         !
 ! A134  A(31,35,36)           112.6803                                         !
 ! A135  A(34,35,36)           116.9222                                         !
 ! A136  A(10,36,25)           105.2299                                         !
 ! A137  A(10,36,35)           105.0137                                         !
 ! A138  A(10,36,37)           106.6512                                         !
 ! A139  A(25,36,35)           115.1251                                         !
 ! A140  A(25,36,37)           109.2433                                         !
 ! A141  A(35,36,37)           114.6894                                         !
 ! A142  A(11,37,28)           113.09                                           !
 ! A143  A(11,37,32)           109.5892                                         !
 ! A144  A(11,37,36)           111.3467                                         !
 ! A145  A(28,37,32)            99.232                                          !
 ! A146  A(28,37,36)           108.3309                                         !
 ! A147  A(32,37,36)           114.7663                                         !
 ! D1    D(38,1,2,32)          169.3603                                         !
 ! D2    D(39,1,2,32)          -72.0199                                         !
 ! D3    D(40,1,2,32)           50.3925                                         !
 ! D4    D(1,2,32,24)          -53.5149                                         !
 ! D5    D(1,2,32,33)           67.2419                                         !
 ! D6    D(1,2,32,37)         -166.582                                          !
 ! D7    D(41,4,6,5)           -58.3611                                         !
 ! D8    D(41,4,6,26)          176.8368                                         !
 ! D9    D(41,4,6,47)           58.976                                          !
 ! D10   D(42,4,6,5)            61.0479                                         !
 ! D11   D(42,4,6,26)          -63.7542                                         !
 ! D12   D(42,4,6,47)          178.385                                          !
 ! D13   D(43,4,6,5)          -178.8566                                         !
 ! D14   D(43,4,6,26)           56.3413                                         !
 ! D15   D(43,4,6,47)          -61.5195                                         !
 ! D16   D(44,5,6,4)           171.0564                                         !
 ! D17   D(44,5,6,26)          -65.6786                                         !
 ! D18   D(44,5,6,47)           54.0194                                         !
 ! D19   D(45,5,6,4)           -68.4004                                         !
 ! D20   D(45,5,6,26)           54.8646                                         !
 ! D21   D(45,5,6,47)          174.5627                                         !
 ! D22   D(46,5,6,4)            50.8777                                         !
 ! D23   D(46,5,6,26)          174.1427                                         !
 ! D24   D(46,5,6,47)          -66.1592                                         !
 ! D25   D(4,6,26,3)            54.1179                                         !
 ! D26   D(4,6,26,25)          172.0903                                         !
 ! D27   D(4,6,26,27)          -64.569                                          !
 ! D28   D(5,6,26,3)           -68.9821                                         !
 ! D29   D(5,6,26,25)           48.9903                                         !
 ! D30   D(5,6,26,27)          172.331                                          !
 ! D31   D(47,6,26,3)          171.4944                                         !
 ! D32   D(47,6,26,25)         -70.5332                                         !
 ! D33   D(47,6,26,27)          52.8075                                         !
 ! D34   D(48,7,9,8)          -176.5275                                         !
 ! D35   D(48,7,9,24)          -57.7962                                         !
 ! D36   D(48,7,9,28)           57.5412                                         !
 ! D37   D(49,7,9,8)           -56.3617                                         !
 ! D38   D(49,7,9,24)           62.3695                                         !
 ! D39   D(49,7,9,28)          177.707                                          !
 ! D40   D(50,7,9,8)            63.1551                                         !
 ! D41   D(50,7,9,24)         -178.1137                                         !
 ! D42   D(50,7,9,28)          -62.7762                                         !
 ! D43   D(25,8,9,7)          -143.7532                                         !
 ! D44   D(25,8,9,24)           97.1466                                         !
 ! D45   D(25,8,9,28)          -14.378                                          !
 ! D46   D(51,8,9,7)            94.1594                                         !
 ! D47   D(51,8,9,24)          -24.9407                                         !
 ! D48   D(51,8,9,28)         -136.4654                                         !
 ! D49   D(52,8,9,7)           -22.6405                                         !
 ! D50   D(52,8,9,24)         -141.7407                                         !
 ! D51   D(52,8,9,28)          106.7347                                         !
 ! D52   D(9,8,25,26)           69.3638                                         !
 ! D53   D(9,8,25,36)          -48.7421                                         !
 ! D54   D(9,8,25,61)         -169.3408                                         !
 ! D55   D(51,8,25,26)        -170.595                                          !
 ! D56   D(51,8,25,36)          71.2991                                         !
 ! D57   D(51,8,25,61)         -49.2996                                         !
 ! D58   D(52,8,25,26)         -52.3203                                         !
 ! D59   D(52,8,25,36)        -170.4262                                         !
 ! D60   D(52,8,25,61)          68.9751                                         !
 ! D61   D(7,9,24,32)          138.5626                                         !
 ! D62   D(8,9,24,32)          -98.8274                                         !
 ! D63   D(28,9,24,32)          15.9371                                         !
 ! D64   D(7,9,28,27)           80.7942                                         !
 ! D65   D(7,9,28,37)         -156.9673                                         !
 ! D66   D(7,9,28,64)          -43.0063                                         !
 ! D67   D(8,9,28,27)          -47.6347                                         !
 ! D68   D(8,9,28,37)           74.6038                                         !
 ! D69   D(8,9,28,64)         -171.4352                                         !
 ! D70   D(24,9,28,27)        -161.4993                                         !
 ! D71   D(24,9,28,37)         -39.2608                                         !
 ! D72   D(24,9,28,64)          74.7002                                         !
 ! D73   D(53,12,35,31)        -72.3625                                         !
 ! D74   D(53,12,35,34)         37.4056                                         !
 ! D75   D(53,12,35,36)        165.3143                                         !
 ! D76   D(20,14,15,16)         -0.0137                                         !
 ! D77   D(20,14,15,55)        179.9932                                         !
 ! D78   D(54,14,15,16)        179.9876                                         !
 ! D79   D(54,14,15,55)         -0.0056                                         !
 ! D80   D(15,14,20,18)          0.0104                                         !
 ! D81   D(15,14,20,21)        179.9822                                         !
 ! D82   D(54,14,20,18)       -179.9908                                         !
 ! D83   D(54,14,20,21)         -0.0191                                         !
 ! D84   D(14,15,16,17)          0.0054                                         !
 ! D85   D(14,15,16,56)       -179.9913                                         !
 ! D86   D(55,15,16,17)        179.9986                                         !
 ! D87   D(55,15,16,56)          0.0018                                         !
 ! D88   D(15,16,17,18)          0.0058                                         !
 ! D89   D(15,16,17,57)       -179.991                                          !
 ! D90   D(56,16,17,18)       -179.9975                                         !
 ! D91   D(56,16,17,57)          0.0057                                         !
 ! D92   D(16,17,18,20)         -0.009                                          !
 ! D93   D(16,17,18,58)        179.9985                                         !
 ! D94   D(57,17,18,20)        179.9878                                         !
 ! D95   D(57,17,18,58)         -0.0046                                         !
 ! D96   D(17,18,20,14)          0.0009                                         !
 ! D97   D(17,18,20,21)       -179.9722                                         !
 ! D98   D(58,18,20,14)        179.9934                                         !
 ! D99   D(58,18,20,21)          0.0204                                         !
 ! D100  D(14,20,21,22)          0.0149                                         !
 ! D101  D(14,20,21,59)       -179.931                                          !
 ! D102  D(18,20,21,22)        179.9866                                         !
 ! D103  D(18,20,21,59)          0.0408                                         !
 ! D104  D(20,21,22,23)       -179.8608                                         !
 ! D105  D(20,21,22,60)          0.1801                                         !
 ! D106  D(59,21,22,23)          0.0847                                         !
 ! D107  D(59,21,22,60)       -179.8744                                         !
 ! D108  D(21,22,23,19)          1.8902                                         !
 ! D109  D(21,22,23,29)       -178.7393                                         !
 ! D110  D(60,22,23,19)       -178.1497                                         !
 ! D111  D(60,22,23,29)          1.2208                                         !
 ! D112  D(19,23,29,30)       -174.2904                                         !
 ! D113  D(19,23,29,34)         -2.0903                                         !
 ! D114  D(22,23,29,30)          6.3293                                         !
 ! D115  D(22,23,29,34)        178.5294                                         !
 ! D116  D(9,24,32,2)          -98.4669                                         !
 ! D117  D(9,24,32,33)         139.252                                          !
 ! D118  D(9,24,32,37)          14.7238                                         !
 ! D119  D(8,25,26,3)         -174.2553                                         !
 ! D120  D(8,25,26,6)           68.0966                                         !
 ! D121  D(8,25,26,27)         -57.5312                                         !
 ! D122  D(36,25,26,3)         -53.0293                                         !
 ! D123  D(36,25,26,6)        -170.6774                                         !
 ! D124  D(36,25,26,27)         63.6947                                         !
 ! D125  D(61,25,26,3)          64.385                                          !
 ! D126  D(61,25,26,6)         -53.2632                                         !
 ! D127  D(61,25,26,27)       -178.891                                          !
 ! D128  D(8,25,36,10)         163.5189                                         !
 ! D129  D(8,25,36,35)         -81.3801                                         !
 ! D130  D(8,25,36,37)          49.3399                                         !
 ! D131  D(26,25,36,10)         44.099                                          !
 ! D132  D(26,25,36,35)        159.2                                            !
 ! D133  D(26,25,36,37)        -70.0801                                         !
 ! D134  D(61,25,36,10)        -74.6461                                         !
 ! D135  D(61,25,36,35)         40.4549                                         !
 ! D136  D(61,25,36,37)        171.1748                                         !
 ! D137  D(3,26,27,28)         111.2551                                         !
 ! D138  D(3,26,27,62)        -128.3238                                         !
 ! D139  D(3,26,27,63)         -10.9872                                         !
 ! D140  D(6,26,27,28)        -131.6721                                         !
 ! D141  D(6,26,27,62)         -11.2511                                         !
 ! D142  D(6,26,27,63)         106.0855                                         !
 ! D143  D(25,26,27,28)         -4.0703                                         !
 ! D144  D(25,26,27,62)        116.3507                                         !
 ! D145  D(25,26,27,63)       -126.3126                                         !
 ! D146  D(26,27,28,9)          58.9252                                         !
 ! D147  D(26,27,28,37)        -53.745                                          !
 ! D148  D(26,27,28,64)       -177.8968                                         !
 ! D149  D(62,27,28,9)         -62.6195                                         !
 ! D150  D(62,27,28,37)       -175.2897                                         !
 ! D151  D(62,27,28,64)         60.5584                                         !
 ! D152  D(63,27,28,9)        -177.7355                                         !
 ! D153  D(63,27,28,37)         69.5943                                         !
 ! D154  D(63,27,28,64)        -54.5575                                         !
 ! D155  D(9,28,37,11)         162.6273                                         !
 ! D156  D(9,28,37,32)          46.616                                          !
 ! D157  D(9,28,37,36)         -73.4472                                         !
 ! D158  D(27,28,37,11)        -76.2944                                         !
 ! D159  D(27,28,37,32)        167.6943                                         !
 ! D160  D(27,28,37,36)         47.6311                                         !
 ! D161  D(64,28,37,11)         48.5393                                         !
 ! D162  D(64,28,37,32)        -67.472                                          !
 ! D163  D(64,28,37,36)        172.4648                                         !
 ! D164  D(23,29,30,31)        178.2636                                         !
 ! D165  D(23,29,30,65)         57.3554                                         !
 ! D166  D(23,29,30,66)        -62.5193                                         !
 ! D167  D(34,29,30,31)          5.4416                                         !
 ! D168  D(34,29,30,65)       -115.4666                                         !
 ! D169  D(34,29,30,66)        124.6587                                         !
 ! D170  D(23,29,34,13)         39.0519                                         !
 ! D171  D(23,29,34,33)        -82.5185                                         !
 ! D172  D(23,29,34,35)        156.966                                          !
 ! D173  D(30,29,34,13)       -147.6184                                         !
 ! D174  D(30,29,34,33)         90.8113                                         !
 ! D175  D(30,29,34,35)        -29.7042                                         !
 ! D176  D(29,30,31,35)         21.205                                          !
 ! D177  D(29,30,31,67)        140.9429                                         !
 ! D178  D(29,30,31,68)        -97.7864                                         !
 ! D179  D(65,30,31,35)        141.445                                          !
 ! D180  D(65,30,31,67)        -98.8172                                         !
 ! D181  D(65,30,31,68)         22.4536                                         !
 ! D182  D(66,30,31,35)        -97.2305                                         !
 ! D183  D(66,30,31,67)         22.5073                                         !
 ! D184  D(66,30,31,68)        143.7781                                         !
 ! D185  D(30,31,35,12)         76.3259                                         !
 ! D186  D(30,31,35,34)        -38.7967                                         !
 ! D187  D(30,31,35,36)       -164.508                                          !
 ! D188  D(67,31,35,12)        -44.7641                                         !
 ! D189  D(67,31,35,34)       -159.8867                                         !
 ! D190  D(67,31,35,36)         74.402                                          !
 ! D191  D(68,31,35,12)       -164.5268                                         !
 ! D192  D(68,31,35,34)         80.3506                                         !
 ! D193  D(68,31,35,36)        -45.3606                                         !
 ! D194  D(2,32,33,34)         171.7692                                         !
 ! D195  D(2,32,33,69)          50.1166                                         !
 ! D196  D(2,32,33,70)         -67.3707                                         !
 ! D197  D(24,32,33,34)        -65.8667                                         !
 ! D198  D(24,32,33,69)        172.4807                                         !
 ! D199  D(24,32,33,70)         54.9933                                         !
 ! D200  D(37,32,33,34)         51.8409                                         !
 ! D201  D(37,32,33,69)        -69.8117                                         !
 ! D202  D(37,32,33,70)        172.7009                                         !
 ! D203  D(2,32,37,11)         -40.3016                                         !
 ! D204  D(2,32,37,28)          78.3561                                         !
 ! D205  D(2,32,37,36)        -166.4367                                         !
 ! D206  D(24,32,37,11)       -157.6548                                         !
 ! D207  D(24,32,37,28)        -38.9972                                         !
 ! D208  D(24,32,37,36)         76.21                                           !
 ! D209  D(33,32,37,11)         82.7497                                         !
 ! D210  D(33,32,37,28)       -158.5926                                         !
 ! D211  D(33,32,37,36)        -43.3855                                         !
 ! D212  D(32,33,34,13)         74.1464                                         !
 ! D213  D(32,33,34,29)       -164.7344                                         !
 ! D214  D(32,33,34,35)        -51.546                                          !
 ! D215  D(69,33,34,13)       -165.3436                                         !
 ! D216  D(69,33,34,29)        -44.2244                                         !
 ! D217  D(69,33,34,35)         68.964                                          !
 ! D218  D(70,33,34,13)        -47.9321                                         !
 ! D219  D(70,33,34,29)         73.1871                                         !
 ! D220  D(70,33,34,35)       -173.6245                                         !
 ! D221  D(13,34,35,12)         42.7174                                         !
 ! D222  D(13,34,35,31)        157.4139                                         !
 ! D223  D(13,34,35,36)        -79.752                                          !
 ! D224  D(29,34,35,12)        -73.6436                                         !
 ! D225  D(29,34,35,31)         41.0529                                         !
 ! D226  D(29,34,35,36)        163.887                                          !
 ! D227  D(33,34,35,12)        167.6742                                         !
 ! D228  D(33,34,35,31)        -77.6293                                         !
 ! D229  D(33,34,35,36)         45.2049                                         !
 ! D230  D(12,35,36,10)         83.6505                                         !
 ! D231  D(12,35,36,25)        -31.5749                                         !
 ! D232  D(12,35,36,37)       -159.6172                                         !
 ! D233  D(31,35,36,10)        -36.2215                                         !
 ! D234  D(31,35,36,25)       -151.4469                                         !
 ! D235  D(31,35,36,37)         80.5107                                         !
 ! D236  D(34,35,36,10)       -152.9575                                         !
 ! D237  D(34,35,36,25)         91.8171                                         !
 ! D238  D(34,35,36,37)        -36.2252                                         !
 ! D239  D(10,36,37,11)         24.9434                                         !
 ! D240  D(10,36,37,28)       -100.0203                                         !
 ! D241  D(10,36,37,32)        150.1649                                         !
 ! D242  D(25,36,37,11)        138.1984                                         !
 ! D243  D(25,36,37,28)         13.2346                                         !
 ! D244  D(25,36,37,32)        -96.5801                                         !
 ! D245  D(35,36,37,11)        -90.8476                                         !
 ! D246  D(35,36,37,28)        144.1887                                         !
 ! D247  D(35,36,37,32)         34.3739                                         !
 --------------------------------------------------------------------------------
 Stoichiometry    C28H37NO4
 Framework group  C1[X(C28H37NO4)]
 Deg. of freedom   204
 Full point group                 C1      NOp   1
 Largest Abelian subgroup         C1      NOp   1
 Largest concise Abelian subgroup C1      NOp   1
                         Standard orientation:                         
 ---------------------------------------------------------------------
 Center     Atomic      Atomic             Coordinates (Angstroms)
 Number     Number       Type             X           Y           Z
 ---------------------------------------------------------------------
      1          6           0       -1.436859    4.247283    0.646069
      2          8           0       -1.911149    3.057019    1.260792
      3          1           0       -4.402888   -1.968932    1.166920
      4          6           0       -6.829336   -2.274346    0.119767
      5          6           0       -5.000644   -3.314893   -1.253136
      6          6           0       -5.524544   -2.007528   -0.645678
      7          6           0       -4.253689    2.106652   -1.811724
      8          6           0       -3.113907   -0.163194   -1.466750
      9          6           0       -3.376742    1.257199   -0.910359
     10          1           0       -2.428609   -1.309952    1.710795
     11          1           0       -2.522964    0.929250    2.299011
     12          8           0       -0.516665   -2.150177   -0.138734
     13          1           0        0.037018    0.176565   -1.110923
     14          6           0        6.821225   -1.005606    0.657190
     15          6           0        8.164327   -1.290778    0.877979
     16          6           0        9.147415   -0.759392    0.035501
     17          6           0        8.775497    0.060700   -1.030894
     18          6           0        7.429568    0.346721   -1.252085
     19          8           0        2.421395    0.905597   -1.460978
     20          6           0        6.429700   -0.179639   -0.414455
     21          6           0        5.035283    0.155196   -0.696892
     22          6           0        3.943785   -0.245021   -0.019573
     23          6           0        2.597299    0.196092   -0.457347
     24          8           0       -2.082800    1.920959   -0.787657
     25          6           0       -3.073026   -1.172062   -0.309252
     26          6           0       -4.494446   -1.323375    0.281044
     27          6           0       -4.967202    0.087867    0.733271
     28          6           0       -3.863843    1.130270    0.548611
     29          7           0        1.543610   -0.230135    0.296334
     30          6           0        1.601085   -0.974498    1.572469
     31          6           0        0.119971   -1.132179    1.964475
     32          6           0       -1.629324    1.847952    0.555312
     33          6           0       -0.138080    1.559341    0.543029
     34          6           0        0.167748    0.173857   -0.028186
     35          6           0       -0.645201   -0.950413    0.635529
     36          6           0       -2.152631   -0.691882    0.847041
     37          6           0       -2.516147    0.780706    1.216306
     38          1           0       -1.890607    5.077360    1.193274
     39          1           0       -0.344085    4.339738    0.710388
     40          1           0       -1.739651    4.295262   -0.405304
     41          1           0       -7.589106   -2.708628   -0.540084
     42          1           0       -6.655153   -2.982409    0.940479
     43          1           0       -7.246856   -1.359278    0.552652
     44          1           0       -4.161538   -3.147171   -1.935339
     45          1           0       -4.661449   -4.001694   -0.466596
     46          1           0       -5.791113   -3.821984   -1.818425
     47          1           0       -5.758946   -1.318514   -1.470842
     48          1           0       -4.357002    3.117174   -1.403358
     49          1           0       -3.818861    2.179153   -2.814859
     50          1           0       -5.250524    1.662452   -1.906203
     51          1           0       -2.170733   -0.145729   -2.021261
     52          1           0       -3.895849   -0.449814   -2.178729
     53          1           0        0.398878   -2.192795   -0.473719
     54          1           0        6.070286   -1.426180    1.320281
     55          1           0        8.449307   -1.929977    1.709719
     56          1           0       10.195947   -0.985061    0.211751
     57          1           0        9.532566    0.477419   -1.690106
     58          1           0        7.139261    0.985832   -2.083045
     59          1           0        4.865839    0.802851   -1.556102
     60          1           0        4.026068   -0.889439    0.849344
     61          1           0       -2.705833   -2.134940   -0.658986
     62          1           0       -5.842073    0.402088    0.149601
     63          1           0       -5.289223    0.082086    1.780258
     64          1           0       -4.198215    2.108362    0.905060
     65          1           0        2.175218   -0.427743    2.327233
     66          1           0        2.079919   -1.947945    1.422035
     67          1           0       -0.095733   -2.110729    2.399382
     68          1           0       -0.175347   -0.364593    2.687143
     69          1           0        0.235303    1.636972    1.569648
     70          1           0        0.391542    2.304529   -0.056387
 ---------------------------------------------------------------------
 Rotational constants (GHZ):           0.3008036           0.0540538           0.0498668
 Standard basis: 6-311G(d,p) (5D, 7F)
 There are   849 symmetry adapted cartesian basis functions of A   symmetry.
 There are   816 symmetry adapted basis functions of A   symmetry.
   816 basis functions,  1352 primitive gaussians,   849 cartesian basis functions
   122 alpha electrons      122 beta electrons
       nuclear repulsion energy      3578.7462207265 Hartrees.
 NAtoms=   70 NActive=   70 NUniq=   70 SFac= 1.00D+00 NAtFMM=   60 NAOKFM=T Big=T
 Integral buffers will be    131072 words long.
 Regular integral format.
 Two-electron integral symmetry is turned on.
 Using the following non-standard input for PCM:
 radii=bondi
 --- end of non-standard input.
 ------------------------------------------------------------------------------
 Polarizable Continuum Model (PCM)
 =================================
 Model                : PCM.
 Atomic radii         : Bondi.
 Polarization charges : Total charges.
 Charge compensation  : None.
 Solution method      : On-the-fly selection.
 Cavity type          : Scaled VdW (van der Waals Surface) (Alpha=1.100).
 Cavity algorithm     : GePol (No added spheres)
                        Default sphere list used, NSphG=   70.
                        Lebedev-Laikov grids with approx.  5.0 points / Ang**2.
                        Smoothing algorithm: York/Karplus (Gamma=1.0000).
                        Polarization charges: spherical gaussians, with
                                              point-specific exponents (IZeta= 3).
                        Self-potential: point-specific (ISelfS= 7).
                        Self-field    : sphere-specific E.n sum rule (ISelfD= 2).
 Solvent              : Methanol, Eps=  32.613000 Eps(inf)=   1.765709
 ------------------------------------------------------------------------------
 One-electron integrals computed using PRISM.
 NBasis=   816 RedAO= T EigKep=  1.73D-04  NBF=   816
 NBsUse=   816 1.00D-06 EigRej= -1.00D+00 NBFU=   816
 Initial guess from the checkpoint file:  "Revised-SAH-42C-3-conf-3.chk"
 B after Tr=     0.000000   -0.000000    0.000000
         Rot=    1.000000   -0.000000    0.000000    0.000000 Ang=   0.00 deg.
 Requested convergence on RMS density matrix=1.00D-08 within 128 cycles.
 Requested convergence on MAX density matrix=1.00D-06.
 Requested convergence on             energy=1.00D-06.
 No special actions if energy rises.
 Inv3:  Mode=1 IEnd=    52668300.
 Iteration    1 A*A^-1 deviation from unit magnitude is 3.22D-15 for   2540.
 Iteration    1 A*A^-1 deviation from orthogonality  is 2.89D-15 for   2786    867.
 Iteration    1 A^-1*A deviation from unit magnitude is 3.33D-15 for    604.
 Iteration    1 A^-1*A deviation from orthogonality  is 6.46D-13 for   3376   3366.
 Error on total polarization charges =  0.05836
 SCF Done:  E(RB3LYP) =  -1445.30843457     A.U. after   10 cycles
            NFock= 10  Conv=0.65D-08     -V/T= 2.0043
 DoSCS=F DFT=T ScalE2(SS,OS)=  1.000000  1.000000
 ExpMin= 1.03D-01 ExpMax= 8.59D+03 ExpMxC= 1.30D+03 IAcc=3 IRadAn=         5 AccDes= 0.00D+00
 HarFok:  IExCor=  205 AccDes= 0.00D+00 IRadAn=         5 IDoV=-2 UseB2=F ITyADJ=14
 ICtDFT= 12500011 ScaDFX=  1.000000  1.000000  1.000000  1.000000
 GSVD:  LWork=       -1353 too small for GESVD, short by        5940 words or        5940 for optimal perf.
 Range of M.O.s used for correlation:    34   816
 NBasis=   816 NAE=   122 NBE=   122 NFC=    33 NFV=     0
 NROrb=    783 NOA=    89 NOB=    89 NVA=   694 NVB=   694

 **** Warning!!: The largest alpha MO coefficient is  0.17635962D+02

 NEqPCM:  Using non-equilibrium solvation (IEInf=1, Eps=  32.6130, EpsInf=   1.7657)
 Inv3:  Mode=1 IEnd=    52668300.
 Iteration    1 A*A^-1 deviation from unit magnitude is 3.77D-15 for   2114.
 Iteration    1 A*A^-1 deviation from orthogonality  is 3.33D-15 for   4059   1806.
 Iteration    1 A^-1*A deviation from unit magnitude is 3.77D-15 for   2114.
 Iteration    1 A^-1*A deviation from orthogonality  is 1.43D-14 for   3451   3426.
 Orbital symmetries:
       Occupied  (A) (A) (A) (A) (A) (A) (A) (A) (A) (A) (A) (A)
                 (A) (A) (A) (A) (A) (A) (A) (A) (A) (A) (A) (A)
                 (A) (A) (A) (A) (A) (A) (A) (A) (A) (A) (A) (A)
                 (A) (A) (A) (A) (A) (A) (A) (A) (A) (A) (A) (A)
                 (A) (A) (A) (A) (A) (A) (A) (A) (A) (A) (A) (A)
                 (A) (A) (A) (A) (A) (A) (A) (A) (A) (A) (A) (A)
                 (A) (A) (A) (A) (A) (A) (A) (A) (A) (A) (A) (A)
                 (A) (A) (A) (A) (A) (A) (A) (A) (A) (A) (A) (A)
                 (A) (A) (A) (A) (A) (A) (A) (A) (A) (A) (A) (A)
                 (A) (A) (A) (A) (A) (A) (A) (A) (A) (A) (A) (A)
                 (A) (A)
       Virtual   (A) (A) (A) (A) (A) (A) (A) (A) (A) (A) (A) (A)
                 (A) (A) (A) (A) (A) (A) (A) (A) (A) (A) (A) (A)
                 (A) (A) (A) (A) (A) (A) (A) (A) (A) (A) (A) (A)
                 (A) (A) (A) (A) (A) (A) (A) (A) (A) (A) (A) (A)
                 (A) (A) (A) (A) (A) (A) (A) (A) (A) (A) (A) (A)
                 (A) (A) (A) (A) (A) (A) (A) (A) (A) (A) (A) (A)
                 (A) (A) (A) (A) (A) (A) (A) (A) (A) (A) (A) (A)
                 (A) (A) (A) (A) (A) (A) (A) (A) (A) (A) (A) (A)
                 (A) (A) (A) (A) (A) (A) (A) (A) (A) (A) (A) (A)
                 (A) (A) (A) (A) (A) (A) (A) (A) (A) (A) (A) (A)
                 (A) (A) (A) (A) (A) (A) (A) (A) (A) (A) (A) (A)
                 (A) (A) (A) (A) (A) (A) (A) (A) (A) (A) (A) (A)
                 (A) (A) (A) (A) (A) (A) (A) (A) (A) (A) (A) (A)
                 (A) (A) (A) (A) (A) (A) (A) (A) (A) (A) (A) (A)
                 (A) (A) (A) (A) (A) (A) (A) (A) (A) (A) (A) (A)
                 (A) (A) (A) (A) (A) (A) (A) (A) (A) (A) (A) (A)
                 (A) (A) (A) (A) (A) (A) (A) (A) (A) (A) (A) (A)
                 (A) (A) (A) (A) (A) (A) (A) (A) (A) (A) (A) (A)
                 (A) (A) (A) (A) (A) (A) (A) (A) (A) (A) (A) (A)
                 (A) (A) (A) (A) (A) (A) (A) (A) (A) (A) (A) (A)
                 (A) (A) (A) (A) (A) (A) (A) (A) (A) (A) (A) (A)
                 (A) (A) (A) (A) (A) (A) (A) (A) (A) (A) (A) (A)
                 (A) (A) (A) (A) (A) (A) (A) (A) (A) (A) (A) (A)
                 (A) (A) (A) (A) (A) (A) (A) (A) (A) (A) (A) (A)
                 (A) (A) (A) (A) (A) (A) (A) (A) (A) (A) (A) (A)
                 (A) (A) (A) (A) (A) (A) (A) (A) (A) (A) (A) (A)
                 (A) (A) (A) (A) (A) (A) (A) (A) (A) (A) (A) (A)
                 (A) (A) (A) (A) (A) (A) (A) (A) (A) (A) (A) (A)
                 (A) (A) (A) (A) (A) (A) (A) (A) (A) (A) (A) (A)
                 (A) (A) (A) (A) (A) (A) (A) (A) (A) (A) (A) (A)
                 (A) (A) (A) (A) (A) (A) (A) (A) (A) (A) (A) (A)
                 (A) (A) (A) (A) (A) (A) (A) (A) (A) (A) (A) (A)
                 (A) (A) (A) (A) (A) (A) (A) (A) (A) (A) (A) (A)
                 (A) (A) (A) (A) (A) (A) (A) (A) (A) (A) (A) (A)
                 (A) (A) (A) (A) (A) (A) (A) (A) (A) (A) (A) (A)
                 (A) (A) (A) (A) (A) (A) (A) (A) (A) (A) (A) (A)
                 (A) (A) (A) (A) (A) (A) (A) (A) (A) (A) (A) (A)
                 (A) (A) (A) (A) (A) (A) (A) (A) (A) (A) (A) (A)
                 (A) (A) (A) (A) (A) (A) (A) (A) (A) (A) (A) (A)
                 (A) (A) (A) (A) (A) (A) (A) (A) (A) (A) (A) (A)
                 (A) (A) (A) (A) (A) (A) (A) (A) (A) (A) (A) (A)
                 (A) (A) (A) (A) (A) (A) (A) (A) (A) (A) (A) (A)
                 (A) (A) (A) (A) (A) (A) (A) (A) (A) (A) (A) (A)
                 (A) (A) (A) (A) (A) (A) (A) (A) (A) (A) (A) (A)
                 (A) (A) (A) (A) (A) (A) (A) (A) (A) (A) (A) (A)
                 (A) (A) (A) (A) (A) (A) (A) (A) (A) (A) (A) (A)
                 (A) (A) (A) (A) (A) (A) (A) (A) (A) (A) (A) (A)
                 (A) (A) (A) (A) (A) (A) (A) (A) (A) (A) (A) (A)
                 (A) (A) (A) (A) (A) (A) (A) (A) (A) (A) (A) (A)
                 (A) (A) (A) (A) (A) (A) (A) (A) (A) (A) (A) (A)
                 (A) (A) (A) (A) (A) (A) (A) (A) (A) (A) (A) (A)
                 (A) (A) (A) (A) (A) (A) (A) (A) (A) (A) (A) (A)
                 (A) (A) (A) (A) (A) (A) (A) (A) (A) (A) (A) (A)
                 (A) (A) (A) (A) (A) (A) (A) (A) (A) (A) (A) (A)
                 (A) (A) (A) (A) (A) (A) (A) (A) (A) (A) (A) (A)
                 (A) (A) (A) (A) (A) (A) (A) (A) (A) (A) (A) (A)
                 (A) (A) (A) (A) (A) (A) (A) (A) (A) (A) (A) (A)
                 (A) (A) (A) (A) (A) (A) (A) (A) (A) (A)
    40 initial guesses have been made.
 Convergence on wavefunction:    0.001000000000000
 Iteration     1 Dimension    40 NMult     0 NNew     40
 CISAX will form    40 AO SS matrices at one time.
 New state      1 was old state      5
 New state      2 was old state      1
 New state      3 was old state      4
 New state      4 was old state      3
 New state      5 was old state      2
 New state     10 was old state     11
 Iteration     2 Dimension    60 NMult    40 NNew     20
 New state      1 was old state      2
 New state      2 was old state      1
 New state      3 was old state      5
 New state      4 was old state      3
 New state      5 was old state      4
 New state      9 was old state     11
 New state     10 was old state      9
 Iteration     3 Dimension    80 NMult    60 NNew     20
 Iteration     4 Dimension    98 NMult    80 NNew     18
 Iteration     5 Dimension   110 NMult    98 NNew     12
 ***********************************************************************
 Excited states from <AA,BB:AA,BB> singles matrix:
 ***********************************************************************
 
 Ground to excited state transition densities written to RWF  633
 Ground to excited state transition electric dipole moments (Au):
       state          X           Y           Z        Dip. S.      Osc.
         1        -2.5550      0.0833      0.3313      6.6445      0.6642
         2         1.1021     -0.0947     -0.0037      1.2235      0.1267
         3         1.5527     -0.3037      0.2533      2.5672      0.2749
         4        -0.1807     -0.1625      0.2418      0.1175      0.0131
         5        -0.0336     -0.0205     -0.0082      0.0016      0.0002
         6         0.0203     -0.0644     -0.0219      0.0050      0.0006
         7         0.1103      0.0961     -0.0840      0.0285      0.0036
         8        -0.0167      0.0436     -0.0513      0.0048      0.0006
         9        -0.8576     -0.3750      0.6319      1.2754      0.1719
        10        -0.0372      0.0283     -0.0372      0.0036      0.0005
 Ground to excited state transition velocity dipole moments (Au):
       state          X           Y           Z        Dip. S.      Osc.
         1         0.3749     -0.0130     -0.0477      0.1430      0.6359
         2        -0.1693      0.0159     -0.0000      0.0289      0.1241
         3        -0.2512      0.0486     -0.0408      0.0671      0.2785
         4         0.0315      0.0271     -0.0404      0.0034      0.0134
         5         0.0057      0.0029      0.0013      0.0000      0.0002
         6        -0.0033      0.0101      0.0041      0.0001      0.0005
         7        -0.0195     -0.0177      0.0160      0.0009      0.0033
         8         0.0036     -0.0089      0.0105      0.0002      0.0007
         9         0.1661      0.0801     -0.1319      0.0514      0.1694
        10         0.0081     -0.0058      0.0074      0.0002      0.0005
 Ground to excited state transition magnetic dipole moments (Au):
       state          X           Y           Z
         1        -0.0420     -0.1723     -0.3531
         2        -0.0635      0.4781     -0.0392
         3         0.0879      0.6288      0.6404
         4         0.0538      0.6781      0.4932
         5        -0.0029     -0.0290     -0.0018
         6        -0.0149     -0.0448     -0.0716
         7        -0.0387     -0.0156     -0.1190
         8        -0.0041      0.0298      0.0107
         9         0.1850      2.2792      1.6368
        10        -0.0012     -0.0812     -0.0281
 Ground to excited state transition velocity quadrupole moments (Au):
       state          XX          YY          ZZ          XY          XZ          YZ
         1         5.8087     -0.1674     -0.0571     -0.3710     -0.1973     -0.0457
         2        -3.0261      0.0504      0.0180      0.2511     -0.0246      0.0117
         3        -5.3951     -0.0737      0.0234      0.6372     -0.2537     -0.0053
         4         0.8403     -0.0411      0.0458      0.3675     -0.5972      0.0085
         5         0.1447      0.0201      0.0018     -0.0331      0.0097      0.0047
         6         0.2355      0.0507      0.0097     -0.0802      0.0232      0.0195
         7        -0.2204     -0.0445      0.0166      0.0182      0.0476     -0.0123
         8        -0.0934     -0.0581      0.0200      0.0088      0.0110     -0.0010
         9         3.4275     -0.1937      0.0923      1.1613     -1.9778      0.0678
        10        -0.1970     -0.0174      0.0015     -0.0425      0.0779     -0.0005
 <0|del|b> * <b|rxdel|0> + <0|del|b> * <b|delr+rdel|0>
 Rotatory Strengths (R) in cgs (10**-40 erg-esu-cm/Gauss)
       state          XX          YY          ZZ    R(velocity)    E-M Angle
         1        80.6933    -79.5640     14.5149      5.2147       88.73
         2        18.1754     20.0367     45.4073     27.8731       77.11
         3       -20.2635    -45.9283    -11.4243    -25.8720       94.33
         4        -0.5874     -6.6211      7.6609      0.1508       89.87
         5        -0.3159      0.1010     -0.2002     -0.1384      122.57
         6        -2.5568      0.0398     -0.2030     -0.9066      135.53
         7        -0.9108     -2.2225     -0.0971     -1.0768      102.93
         8         0.0677      0.0025     -0.6700     -0.1999      111.66
         9       -49.2120    -36.1950     76.2405     -3.0555       90.24
        10         0.6912      0.1586      0.0235      0.2911       76.27
 1/2[<0|r|b>*<b|rxdel|0> + (<0|rxdel|b>*<b|r|0>)*]
 Rotatory Strengths (R) in cgs (10**-40 erg-esu-cm/Gauss)
       state          XX          YY          ZZ     R(length)
         1       -75.9528     10.1499     82.7073      5.6348
         2        49.5253     32.0134     -0.1033     27.1452
         3       -96.5035    135.0234   -114.7237    -25.4013
         4         6.8774     77.9224    -84.3439      0.1520
         5        -0.0678     -0.4201     -0.0106     -0.1662
         6         0.2146     -2.0420     -1.1083     -0.9786
         7         3.0212      1.0612     -7.0656     -0.9944
         8        -0.0485     -0.9172      0.3882     -0.1925
         9       112.2197    604.4272   -731.4037     -4.9190
        10        -0.0318      1.6259     -0.7401      0.2847
  1/2[<0|del|b>*<b|r|0> + (<0|r|b>*<b|del|0>)*] (Au)
       state          X           Y           Z        Dip. S.   Osc.(frdel)
         1        -0.9580     -0.0011     -0.0158      0.9748      0.6499
         2        -0.1866     -0.0015      0.0000      0.1881      0.1254
         3        -0.3900     -0.0148     -0.0103      0.4151      0.2767
         4        -0.0057     -0.0044     -0.0098      0.0199      0.0132
         5        -0.0002     -0.0001     -0.0000      0.0003      0.0002
         6        -0.0001     -0.0007     -0.0001      0.0008      0.0005
         7        -0.0022     -0.0017     -0.0013      0.0052      0.0035
         8        -0.0001     -0.0004     -0.0005      0.0010      0.0007
         9        -0.1424     -0.0300     -0.0833      0.2558      0.1705
        10        -0.0003     -0.0002     -0.0003      0.0007      0.0005

 Excitation energies and oscillator strengths:
 
 Excited State   1:      Singlet-A      4.0803 eV  303.86 nm  f=0.6642  <S**2>=0.000
     118 ->123         0.14085
     121 ->123         0.27132
     122 ->123         0.63348
 This state for optimization and/or second-order correction.
 Total Energy, E(TD-HF/TD-DFT) =  -1445.15848730    
 Copying the excited state density for this state as the 1-particle RhoCI density.
 
 Excited State   2:      Singlet-A      4.2256 eV  293.41 nm  f=0.1267  <S**2>=0.000
     116 ->123         0.13671
     118 ->123         0.61270
     118 ->125         0.10023
     120 ->123         0.11712
     121 ->123         0.14760
     122 ->123        -0.21570
 
 Excited State   3:      Singlet-A      4.3706 eV  283.68 nm  f=0.2749  <S**2>=0.000
     118 ->123        -0.19936
     121 ->123         0.63147
     122 ->123        -0.21886
 
 Excited State   4:      Singlet-A      4.5443 eV  272.84 nm  f=0.0131  <S**2>=0.000
     119 ->123         0.64110
     121 ->124         0.11462
     122 ->124        -0.26780
 
 Excited State   5:      Singlet-A      4.7307 eV  262.08 nm  f=0.0002  <S**2>=0.000
     118 ->123        -0.12085
     120 ->123         0.69343
 
 Excited State   6:      Singlet-A      4.9604 eV  249.95 nm  f=0.0006  <S**2>=0.000
     115 ->123         0.10611
     117 ->123         0.68749
 
 Excited State   7:      Singlet-A      5.1776 eV  239.46 nm  f=0.0036  <S**2>=0.000
     115 ->123         0.24150
     116 ->123         0.63641
     118 ->123        -0.16643
 
 Excited State   8:      Singlet-A      5.3768 eV  230.59 nm  f=0.0006  <S**2>=0.000
     115 ->123         0.64867
     116 ->123        -0.25149
 
 Excited State   9:      Singlet-A      5.5031 eV  225.30 nm  f=0.1719  <S**2>=0.000
     119 ->123         0.27237
     119 ->125         0.16820
     122 ->124         0.62470
 
 Excited State  10:      Singlet-A      5.5660 eV  222.75 nm  f=0.0005  <S**2>=0.000
     114 ->123         0.70038
 SavETr:  write IOETrn=   770 NScale= 10 NData=  16 NLR=1 NState=   10 LETran=     190.

 **********************************************************************

            Population analysis using the SCF density.

 **********************************************************************

 Orbital symmetries:
       Occupied  (A) (A) (A) (A) (A) (A) (A) (A) (A) (A) (A) (A)
                 (A) (A) (A) (A) (A) (A) (A) (A) (A) (A) (A) (A)
                 (A) (A) (A) (A) (A) (A) (A) (A) (A) (A) (A) (A)
                 (A) (A) (A) (A) (A) (A) (A) (A) (A) (A) (A) (A)
                 (A) (A) (A) (A) (A) (A) (A) (A) (A) (A) (A) (A)
                 (A) (A) (A) (A) (A) (A) (A) (A) (A) (A) (A) (A)
                 (A) (A) (A) (A) (A) (A) (A) (A) (A) (A) (A) (A)
                 (A) (A) (A) (A) (A) (A) (A) (A) (A) (A) (A) (A)
                 (A) (A) (A) (A) (A) (A) (A) (A) (A) (A) (A) (A)
                 (A) (A) (A) (A) (A) (A) (A) (A) (A) (A) (A) (A)
                 (A) (A)
       Virtual   (A) (A) (A) (A) (A) (A) (A) (A) (A) (A) (A) (A)
                 (A) (A) (A) (A) (A) (A) (A) (A) (A) (A) (A) (A)
                 (A) (A) (A) (A) (A) (A) (A) (A) (A) (A) (A) (A)
                 (A) (A) (A) (A) (A) (A) (A) (A) (A) (A) (A) (A)
                 (A) (A) (A) (A) (A) (A) (A) (A) (A) (A) (A) (A)
                 (A) (A) (A) (A) (A) (A) (A) (A) (A) (A) (A) (A)
                 (A) (A) (A) (A) (A) (A) (A) (A) (A) (A) (A) (A)
                 (A) (A) (A) (A) (A) (A) (A) (A) (A) (A) (A) (A)
                 (A) (A) (A) (A) (A) (A) (A) (A) (A) (A) (A) (A)
                 (A) (A) (A) (A) (A) (A) (A) (A) (A) (A) (A) (A)
                 (A) (A) (A) (A) (A) (A) (A) (A) (A) (A) (A) (A)
                 (A) (A) (A) (A) (A) (A) (A) (A) (A) (A) (A) (A)
                 (A) (A) (A) (A) (A) (A) (A) (A) (A) (A) (A) (A)
                 (A) (A) (A) (A) (A) (A) (A) (A) (A) (A) (A) (A)
                 (A) (A) (A) (A) (A) (A) (A) (A) (A) (A) (A) (A)
                 (A) (A) (A) (A) (A) (A) (A) (A) (A) (A) (A) (A)
                 (A) (A) (A) (A) (A) (A) (A) (A) (A) (A) (A) (A)
                 (A) (A) (A) (A) (A) (A) (A) (A) (A) (A) (A) (A)
                 (A) (A) (A) (A) (A) (A) (A) (A) (A) (A) (A) (A)
                 (A) (A) (A) (A) (A) (A) (A) (A) (A) (A) (A) (A)
                 (A) (A) (A) (A) (A) (A) (A) (A) (A) (A) (A) (A)
                 (A) (A) (A) (A) (A) (A) (A) (A) (A) (A) (A) (A)
                 (A) (A) (A) (A) (A) (A) (A) (A) (A) (A) (A) (A)
                 (A) (A) (A) (A) (A) (A) (A) (A) (A) (A) (A) (A)
                 (A) (A) (A) (A) (A) (A) (A) (A) (A) (A) (A) (A)
                 (A) (A) (A) (A) (A) (A) (A) (A) (A) (A) (A) (A)
                 (A) (A) (A) (A) (A) (A) (A) (A) (A) (A) (A) (A)
                 (A) (A) (A) (A) (A) (A) (A) (A) (A) (A) (A) (A)
                 (A) (A) (A) (A) (A) (A) (A) (A) (A) (A) (A) (A)
                 (A) (A) (A) (A) (A) (A) (A) (A) (A) (A) (A) (A)
                 (A) (A) (A) (A) (A) (A) (A) (A) (A) (A) (A) (A)
                 (A) (A) (A) (A) (A) (A) (A) (A) (A) (A) (A) (A)
                 (A) (A) (A) (A) (A) (A) (A) (A) (A) (A) (A) (A)
                 (A) (A) (A) (A) (A) (A) (A) (A) (A) (A) (A) (A)
                 (A) (A) (A) (A) (A) (A) (A) (A) (A) (A) (A) (A)
                 (A) (A) (A) (A) (A) (A) (A) (A) (A) (A) (A) (A)
                 (A) (A) (A) (A) (A) (A) (A) (A) (A) (A) (A) (A)
                 (A) (A) (A) (A) (A) (A) (A) (A) (A) (A) (A) (A)
                 (A) (A) (A) (A) (A) (A) (A) (A) (A) (A) (A) (A)
                 (A) (A) (A) (A) (A) (A) (A) (A) (A) (A) (A) (A)
                 (A) (A) (A) (A) (A) (A) (A) (A) (A) (A) (A) (A)
                 (A) (A) (A) (A) (A) (A) (A) (A) (A) (A) (A) (A)
                 (A) (A) (A) (A) (A) (A) (A) (A) (A) (A) (A) (A)
                 (A) (A) (A) (A) (A) (A) (A) (A) (A) (A) (A) (A)
                 (A) (A) (A) (A) (A) (A) (A) (A) (A) (A) (A) (A)
                 (A) (A) (A) (A) (A) (A) (A) (A) (A) (A) (A) (A)
                 (A) (A) (A) (A) (A) (A) (A) (A) (A) (A) (A) (A)
                 (A) (A) (A) (A) (A) (A) (A) (A) (A) (A) (A) (A)
                 (A) (A) (A) (A) (A) (A) (A) (A) (A) (A) (A) (A)
                 (A) (A) (A) (A) (A) (A) (A) (A) (A) (A) (A) (A)
                 (A) (A) (A) (A) (A) (A) (A) (A) (A) (A) (A) (A)
                 (A) (A) (A) (A) (A) (A) (A) (A) (A) (A) (A) (A)
                 (A) (A) (A) (A) (A) (A) (A) (A) (A) (A) (A) (A)
                 (A) (A) (A) (A) (A) (A) (A) (A) (A) (A) (A) (A)
                 (A) (A) (A) (A) (A) (A) (A) (A) (A) (A) (A) (A)
                 (A) (A) (A) (A) (A) (A) (A) (A) (A) (A) (A) (A)
                 (A) (A) (A) (A) (A) (A) (A) (A) (A) (A) (A) (A)
                 (A) (A) (A) (A) (A) (A) (A) (A) (A) (A)
 The electronic state is 1-A.
 Alpha  occ. eigenvalues --  -19.12081 -19.11927 -19.11918 -19.08230 -14.34201
 Alpha  occ. eigenvalues --  -10.27366 -10.26863 -10.23165 -10.22109 -10.20732
 Alpha  occ. eigenvalues --  -10.20662 -10.20220 -10.19204 -10.19091 -10.18100
 Alpha  occ. eigenvalues --  -10.18082 -10.18055 -10.17932 -10.17865 -10.17823
 Alpha  occ. eigenvalues --  -10.17382 -10.17329 -10.16892 -10.16683 -10.16579
 Alpha  occ. eigenvalues --  -10.16480 -10.16113 -10.16004 -10.15813 -10.15442
 Alpha  occ. eigenvalues --  -10.15391 -10.14942 -10.14887  -1.07019  -1.03920
 Alpha  occ. eigenvalues --   -1.02724  -1.00763  -0.94244  -0.86853  -0.85856
 Alpha  occ. eigenvalues --   -0.81937  -0.80438  -0.79547  -0.77954  -0.76244
 Alpha  occ. eigenvalues --   -0.75634  -0.75379  -0.74056  -0.72792  -0.71686
 Alpha  occ. eigenvalues --   -0.68607  -0.67773  -0.67565  -0.65818  -0.62895
 Alpha  occ. eigenvalues --   -0.62346  -0.61219  -0.60728  -0.59901  -0.59011
 Alpha  occ. eigenvalues --   -0.57424  -0.55537  -0.54533  -0.53799  -0.52422
 Alpha  occ. eigenvalues --   -0.52102  -0.51762  -0.50764  -0.50006  -0.49182
 Alpha  occ. eigenvalues --   -0.47902  -0.47127  -0.46657  -0.46419  -0.45818
 Alpha  occ. eigenvalues --   -0.45024  -0.44806  -0.43990  -0.43357  -0.42906
 Alpha  occ. eigenvalues --   -0.42628  -0.42563  -0.42326  -0.42070  -0.41800
 Alpha  occ. eigenvalues --   -0.41244  -0.40610  -0.40131  -0.39634  -0.39570
 Alpha  occ. eigenvalues --   -0.39120  -0.38710  -0.38588  -0.38008  -0.37715
 Alpha  occ. eigenvalues --   -0.37654  -0.37187  -0.36986  -0.35712  -0.35546
 Alpha  occ. eigenvalues --   -0.35454  -0.35239  -0.34910  -0.34588  -0.34441
 Alpha  occ. eigenvalues --   -0.34195  -0.33142  -0.33024  -0.32761  -0.31736
 Alpha  occ. eigenvalues --   -0.31012  -0.30455  -0.29300  -0.28734  -0.28317
 Alpha  occ. eigenvalues --   -0.27731  -0.26913  -0.26448  -0.26430  -0.25773
 Alpha  occ. eigenvalues --   -0.24599  -0.23569
 Alpha virt. eigenvalues --   -0.06984  -0.01612   0.01395   0.03410   0.04566
 Alpha virt. eigenvalues --    0.05329   0.05500   0.05648   0.06485   0.06839
 Alpha virt. eigenvalues --    0.07059   0.07706   0.07880   0.08708   0.08747
 Alpha virt. eigenvalues --    0.08859   0.09292   0.09660   0.10101   0.10562
 Alpha virt. eigenvalues --    0.10911   0.11288   0.11577   0.11918   0.11997
 Alpha virt. eigenvalues --    0.12280   0.12745   0.12973   0.13316   0.13717
 Alpha virt. eigenvalues --    0.14174   0.14349   0.14586   0.14933   0.14980
 Alpha virt. eigenvalues --    0.15444   0.15475   0.15680   0.16221   0.16502
 Alpha virt. eigenvalues --    0.16906   0.17668   0.18292   0.18444   0.18735
 Alpha virt. eigenvalues --    0.19437   0.19554   0.20012   0.20656   0.20932
 Alpha virt. eigenvalues --    0.21395   0.21720   0.22470   0.23063   0.23324
 Alpha virt. eigenvalues --    0.23633   0.23982   0.24494   0.24980   0.25218
 Alpha virt. eigenvalues --    0.26149   0.26362   0.26877   0.26969   0.27299
 Alpha virt. eigenvalues --    0.27911   0.28018   0.28830   0.29135   0.29462
 Alpha virt. eigenvalues --    0.29919   0.30883   0.31274   0.31541   0.32401
 Alpha virt. eigenvalues --    0.32663   0.32999   0.33285   0.34102   0.34926
 Alpha virt. eigenvalues --    0.35161   0.35666   0.36323   0.36604   0.37038
 Alpha virt. eigenvalues --    0.37105   0.37139   0.38160   0.38846   0.38896
 Alpha virt. eigenvalues --    0.39206   0.39642   0.39847   0.40033   0.40355
 Alpha virt. eigenvalues --    0.40937   0.41372   0.41508   0.42134   0.42714
 Alpha virt. eigenvalues --    0.43087   0.43373   0.43877   0.44216   0.44521
 Alpha virt. eigenvalues --    0.44704   0.45185   0.45620   0.46018   0.46662
 Alpha virt. eigenvalues --    0.47199   0.47745   0.47826   0.48954   0.49547
 Alpha virt. eigenvalues --    0.50158   0.50197   0.50631   0.51068   0.51638
 Alpha virt. eigenvalues --    0.52026   0.52052   0.52398   0.53208   0.53885
 Alpha virt. eigenvalues --    0.54283   0.54413   0.54801   0.55044   0.55157
 Alpha virt. eigenvalues --    0.56016   0.56200   0.56821   0.56988   0.57148
 Alpha virt. eigenvalues --    0.57581   0.57704   0.58083   0.58479   0.58565
 Alpha virt. eigenvalues --    0.58639   0.59004   0.59216   0.59552   0.59838
 Alpha virt. eigenvalues --    0.60148   0.60263   0.60469   0.60665   0.60684
 Alpha virt. eigenvalues --    0.60910   0.61301   0.61552   0.61681   0.61705
 Alpha virt. eigenvalues --    0.62214   0.62452   0.62807   0.63055   0.63176
 Alpha virt. eigenvalues --    0.63497   0.63826   0.64038   0.64428   0.64714
 Alpha virt. eigenvalues --    0.65058   0.65180   0.65546   0.66085   0.66492
 Alpha virt. eigenvalues --    0.67048   0.67394   0.67692   0.68389   0.68696
 Alpha virt. eigenvalues --    0.69961   0.70024   0.70279   0.71039   0.72134
 Alpha virt. eigenvalues --    0.72258   0.72850   0.73412   0.73968   0.74603
 Alpha virt. eigenvalues --    0.74930   0.75143   0.76151   0.76839   0.77284
 Alpha virt. eigenvalues --    0.77851   0.78830   0.79068   0.79524   0.80221
 Alpha virt. eigenvalues --    0.80743   0.80987   0.82329   0.83423   0.84245
 Alpha virt. eigenvalues --    0.84464   0.85098   0.85935   0.87381   0.87953
 Alpha virt. eigenvalues --    0.88404   0.90257   0.90697   0.91172   0.91692
 Alpha virt. eigenvalues --    0.92760   0.93524   0.93764   0.94731   0.95883
 Alpha virt. eigenvalues --    0.97295   0.97541   0.98270   0.98510   0.99406
 Alpha virt. eigenvalues --    0.99788   0.99931   1.00921   1.01847   1.02474
 Alpha virt. eigenvalues --    1.03843   1.04326   1.04515   1.05949   1.06937
 Alpha virt. eigenvalues --    1.07646   1.08018   1.08253   1.08644   1.09289
 Alpha virt. eigenvalues --    1.11004   1.11249   1.12528   1.13308   1.13410
 Alpha virt. eigenvalues --    1.14260   1.14476   1.16003   1.16486   1.16762
 Alpha virt. eigenvalues --    1.18265   1.18938   1.19785   1.20268   1.21304
 Alpha virt. eigenvalues --    1.21605   1.22097   1.23696   1.24763   1.24975
 Alpha virt. eigenvalues --    1.25981   1.26045   1.26388   1.28782   1.29052
 Alpha virt. eigenvalues --    1.31033   1.31896   1.33453   1.33647   1.33910
 Alpha virt. eigenvalues --    1.34999   1.36791   1.37140   1.37444   1.37883
 Alpha virt. eigenvalues --    1.39433   1.39879   1.41811   1.42022   1.42423
 Alpha virt. eigenvalues --    1.42528   1.42848   1.43569   1.43934   1.44303
 Alpha virt. eigenvalues --    1.44914   1.45292   1.45654   1.45893   1.46220
 Alpha virt. eigenvalues --    1.46699   1.47114   1.47443   1.47658   1.48635
 Alpha virt. eigenvalues --    1.49287   1.49780   1.50086   1.50554   1.51059
 Alpha virt. eigenvalues --    1.51266   1.51880   1.52479   1.52828   1.53392
 Alpha virt. eigenvalues --    1.53962   1.54063   1.54417   1.54768   1.54934
 Alpha virt. eigenvalues --    1.55309   1.56178   1.56845   1.56951   1.57285
 Alpha virt. eigenvalues --    1.57799   1.58094   1.58818   1.59015   1.59197
 Alpha virt. eigenvalues --    1.59434   1.60209   1.60626   1.61085   1.61459
 Alpha virt. eigenvalues --    1.61769   1.62221   1.62459   1.63437   1.63582
 Alpha virt. eigenvalues --    1.63758   1.64198   1.65052   1.65515   1.66277
 Alpha virt. eigenvalues --    1.67007   1.67325   1.67765   1.68358   1.68691
 Alpha virt. eigenvalues --    1.69400   1.69924   1.70298   1.70663   1.71535
 Alpha virt. eigenvalues --    1.71704   1.72239   1.72507   1.72832   1.73404
 Alpha virt. eigenvalues --    1.73636   1.73845   1.74669   1.75422   1.75556
 Alpha virt. eigenvalues --    1.75760   1.76477   1.76754   1.77081   1.77662
 Alpha virt. eigenvalues --    1.78148   1.78296   1.79092   1.79308   1.79717
 Alpha virt. eigenvalues --    1.80077   1.80769   1.80905   1.82136   1.82295
 Alpha virt. eigenvalues --    1.82855   1.83517   1.83762   1.84430   1.85240
 Alpha virt. eigenvalues --    1.86330   1.86635   1.87115   1.87906   1.88114
 Alpha virt. eigenvalues --    1.89620   1.89802   1.89821   1.90348   1.90899
 Alpha virt. eigenvalues --    1.91155   1.91280   1.91438   1.91947   1.92606
 Alpha virt. eigenvalues --    1.93733   1.94006   1.94923   1.95191   1.95546
 Alpha virt. eigenvalues --    1.96437   1.97584   1.97949   1.98514   1.98890
 Alpha virt. eigenvalues --    1.99599   2.00501   2.00871   2.01598   2.02995
 Alpha virt. eigenvalues --    2.03346   2.03893   2.04904   2.05785   2.05969
 Alpha virt. eigenvalues --    2.06387   2.07293   2.08320   2.08771   2.09644
 Alpha virt. eigenvalues --    2.10196   2.10585   2.11139   2.12454   2.12661
 Alpha virt. eigenvalues --    2.13483   2.13796   2.14686   2.15062   2.15693
 Alpha virt. eigenvalues --    2.16294   2.16692   2.16851   2.18322   2.19037
 Alpha virt. eigenvalues --    2.20071   2.20453   2.21186   2.21513   2.22966
 Alpha virt. eigenvalues --    2.24162   2.25074   2.25510   2.26468   2.27007
 Alpha virt. eigenvalues --    2.27229   2.28161   2.28668   2.29245   2.30005
 Alpha virt. eigenvalues --    2.30435   2.30698   2.31499   2.32217   2.32912
 Alpha virt. eigenvalues --    2.33115   2.33891   2.34663   2.36144   2.36315
 Alpha virt. eigenvalues --    2.36449   2.37049   2.37609   2.37986   2.39320
 Alpha virt. eigenvalues --    2.39923   2.40715   2.40944   2.41973   2.42233
 Alpha virt. eigenvalues --    2.43011   2.43797   2.44910   2.45371   2.46105
 Alpha virt. eigenvalues --    2.46891   2.47362   2.47819   2.48109   2.48633
 Alpha virt. eigenvalues --    2.49109   2.50501   2.50720   2.52372   2.52637
 Alpha virt. eigenvalues --    2.53225   2.53862   2.53964   2.54359   2.54941
 Alpha virt. eigenvalues --    2.55055   2.55855   2.57185   2.57710   2.58023
 Alpha virt. eigenvalues --    2.58289   2.59265   2.59577   2.60203   2.60249
 Alpha virt. eigenvalues --    2.60503   2.61118   2.61746   2.62013   2.62920
 Alpha virt. eigenvalues --    2.63454   2.63724   2.63951   2.64860   2.65491
 Alpha virt. eigenvalues --    2.65837   2.66291   2.66566   2.67716   2.67960
 Alpha virt. eigenvalues --    2.68211   2.68640   2.68913   2.70047   2.70443
 Alpha virt. eigenvalues --    2.71047   2.72582   2.72765   2.74170   2.74264
 Alpha virt. eigenvalues --    2.75469   2.75665   2.76500   2.77302   2.77777
 Alpha virt. eigenvalues --    2.78539   2.79974   2.80860   2.81839   2.82184
 Alpha virt. eigenvalues --    2.83162   2.83218   2.84298   2.85703   2.86598
 Alpha virt. eigenvalues --    2.87440   2.87817   2.88638   2.89272   2.89993
 Alpha virt. eigenvalues --    2.90567   2.90787   2.91109   2.92163   2.93699
 Alpha virt. eigenvalues --    2.94985   2.95835   2.96118   2.96518   2.97423
 Alpha virt. eigenvalues --    2.98486   2.99175   3.00402   3.02405   3.03103
 Alpha virt. eigenvalues --    3.03499   3.04044   3.05885   3.06366   3.07110
 Alpha virt. eigenvalues --    3.07958   3.08122   3.08696   3.09950   3.11356
 Alpha virt. eigenvalues --    3.13292   3.14477   3.15447   3.15708   3.17879
 Alpha virt. eigenvalues --    3.17953   3.19287   3.20584   3.21971   3.23421
 Alpha virt. eigenvalues --    3.24156   3.24404   3.26036   3.26586   3.28458
 Alpha virt. eigenvalues --    3.29033   3.31133   3.31724   3.32226   3.32985
 Alpha virt. eigenvalues --    3.33527   3.34192   3.36268   3.37337   3.37856
 Alpha virt. eigenvalues --    3.41237   3.43074   3.45945   3.47353   3.50011
 Alpha virt. eigenvalues --    3.50437   3.51656   3.54357   3.55384   3.56990
 Alpha virt. eigenvalues --    3.58642   3.59394   3.60980   3.64237   3.64859
 Alpha virt. eigenvalues --    3.68767   3.74024   3.74836   3.78022   3.78304
 Alpha virt. eigenvalues --    3.79430   3.80144   3.81335   3.81516   3.82334
 Alpha virt. eigenvalues --    3.82658   3.83383   3.83988   3.84763   3.86984
 Alpha virt. eigenvalues --    3.90568   3.91357   3.94517   3.97797   3.99834
 Alpha virt. eigenvalues --    4.01318   4.02107   4.03103   4.03997   4.07781
 Alpha virt. eigenvalues --    4.09847   4.10706   4.11936   4.12338   4.13465
 Alpha virt. eigenvalues --    4.14274   4.17031   4.19359   4.19976   4.20547
 Alpha virt. eigenvalues --    4.24899   4.25158   4.27623   4.29924   4.32226
 Alpha virt. eigenvalues --    4.33378   4.40962   4.42180   4.48294   4.51299
 Alpha virt. eigenvalues --    4.53968   4.82795   4.85028   4.92469   4.96873
 Alpha virt. eigenvalues --    5.04723   5.05187   5.15776   5.18045   5.22395
 Alpha virt. eigenvalues --    5.35199   5.36023   5.61079   5.63887   5.67745
 Alpha virt. eigenvalues --    5.79169  23.52663  23.67863  23.74344  23.75758
 Alpha virt. eigenvalues --   23.78333  23.81074  23.82552  23.83164  23.84883
 Alpha virt. eigenvalues --   23.85986  23.86427  23.88657  23.91291  23.91848
 Alpha virt. eigenvalues --   23.91903  23.92003  23.92428  23.93343  23.94648
 Alpha virt. eigenvalues --   23.95127  23.98273  24.00061  24.01713  24.04529
 Alpha virt. eigenvalues --   24.09123  24.17575  24.17672  24.21256  35.58900
 Alpha virt. eigenvalues --   49.95550  49.98870  50.01533  50.05336
          Condensed to atoms (all electrons):
 Mulliken charges:
               1
     1  C   -0.125397
     2  O   -0.419523
     3  H    0.115794
     4  C   -0.277518
     5  C   -0.286970
     6  C   -0.183066
     7  C   -0.225085
     8  C   -0.087862
     9  C    0.009115
    10  H    0.138268
    11  H    0.130311
    12  O   -0.446073
    13  H    0.143002
    14  C   -0.074877
    15  C   -0.118111
    16  C   -0.101350
    17  C   -0.116547
    18  C   -0.076164
    19  O   -0.483673
    20  C   -0.099149
    21  C   -0.029541
    22  C   -0.248293
    23  C    0.480601
    24  O   -0.431471
    25  C   -0.177620
    26  C   -0.167729
    27  C   -0.099019
    28  C   -0.192872
    29  N   -0.446899
    30  C   -0.040611
    31  C   -0.193947
    32  C    0.248515
    33  C   -0.068075
    34  C   -0.031026
    35  C    0.057908
    36  C   -0.098285
    37  C   -0.119200
    38  H    0.120800
    39  H    0.106267
    40  H    0.108300
    41  H    0.108821
    42  H    0.101884
    43  H    0.107895
    44  H    0.114388
    45  H    0.104447
    46  H    0.107429
    47  H    0.115714
    48  H    0.112970
    49  H    0.113646
    50  H    0.115698
    51  H    0.122287
    52  H    0.122472
    53  H    0.272936
    54  H    0.120366
    55  H    0.123048
    56  H    0.124592
    57  H    0.123598
    58  H    0.118790
    59  H    0.110455
    60  H    0.147147
    61  H    0.122731
    62  H    0.121625
    63  H    0.118734
    64  H    0.123193
    65  H    0.147379
    66  H    0.147245
    67  H    0.133335
    68  H    0.141140
    69  H    0.130787
    70  H    0.132319
 Sum of Mulliken charges =  -0.00000
 Mulliken charges with hydrogens summed into heavy atoms:
               1
     1  C    0.209970
     2  O   -0.419523
     4  C    0.041083
     5  C    0.039295
     6  C   -0.067352
     7  C    0.117230
     8  C    0.156897
     9  C    0.009115
    12  O   -0.173137
    14  C    0.045489
    15  C    0.004937
    16  C    0.023242
    17  C    0.007050
    18  C    0.042627
    19  O   -0.483673
    20  C   -0.099149
    21  C    0.080914
    22  C   -0.101147
    23  C    0.480601
    24  O   -0.431471
    25  C   -0.054889
    26  C   -0.051935
    27  C    0.141340
    28  C   -0.069680
    29  N   -0.446899
    30  C    0.254012
    31  C    0.080528
    32  C    0.248515
    33  C    0.195032
    34  C    0.111977
    35  C    0.057908
    36  C    0.039983
    37  C    0.011110
 Electronic spatial extent (au):  <R**2>=          21350.2819
 Charge=             -0.0000 electrons
 Dipole moment (field-independent basis, Debye):
    X=              1.4158    Y=             -2.7785    Z=              4.7213  Tot=              5.6582
 Quadrupole moment (field-independent basis, Debye-Ang):
   XX=           -164.0176   YY=           -202.1586   ZZ=           -197.9044
   XY=             -8.8452   XZ=              9.7809   YZ=             -4.6107
 Traceless Quadrupole moment (field-independent basis, Debye-Ang):
   XX=             24.0093   YY=            -14.1317   ZZ=             -9.8776
   XY=             -8.8452   XZ=              9.7809   YZ=             -4.6107
 Octapole moment (field-independent basis, Debye-Ang**2):
  XXX=            258.2856  YYY=             52.6369  ZZZ=             14.0590  XYY=              5.2619
  XXY=            -29.5887  XXZ=             -6.7204  XZZ=              3.9092  YZZ=            -12.3896
  YYZ=             10.0188  XYZ=            -25.8022
 Hexadecapole moment (field-independent basis, Debye-Ang**3):
 XXXX=         -21127.9093 YYYY=          -3454.0650 ZZZZ=          -1479.3777 XXXY=           -372.7418
 XXXZ=            -19.6321 YYYX=           -111.2236 YYYZ=             -5.4246 ZZZX=              8.6662
 ZZZY=            -23.3757 XXYY=          -4788.4620 XXZZ=          -4220.9532 YYZZ=           -861.2907
 XXYZ=           -283.1066 YYXZ=             45.4802 ZZXY=             -1.2451
 N-N= 3.578746220726D+03 E-N=-1.052428609354D+04  KE= 1.439160613813D+03
 1\1\GINC-LOCALHOST\SP\RB3LYP TD-FC\6-311G(d,p)\C28H37N1O4\ADMIN\24-Jun
 -2021\0\\# td=(nstates=10,root=1) b3lyp/6-311g(d,p) guess=read geom=ch
 eck integral(ultrafinegrid) scrf=(iefpcm,read,solvent=methanol)\\Candi
 date Structure: Revised-SAH-42C-3, Conformer: 3, energy calculation wi
 th methanol solvation\\0,1\C,0,1.287665864,6.2260951271,-5.0157973742\
 O,0,1.5839752917,7.6077054998,-4.864408593\H,0,2.2027225745,12.2859953
 446,-1.8298555561\C,0,0.2484267594,13.1623902674,-0.2518456048\C,0,2.2
 282676032,12.2581199198,1.0028411115\C,0,1.1338753256,11.9287476696,-0
 .0201444132\C,0,-0.1195961369,7.8357131478,-1.2759685949\C,0,2.0892481
 664,9.0210663076,-0.7409394454\C,0,1.1482721452,8.4566207879,-1.832788
 2733\H,0,3.5456777087,11.127951622,-3.0477386104\H,0,2.3063614809,9.92
 83017493,-4.594948671\O,0,5.4476076862,9.7952877948,-1.5021201766\H,0,
 4.5745679548,7.400048363,-1.9096426363\C,0,11.0419422739,5.7582106348,
 -4.3645668532\C,0,12.3392194906,5.4013738962,-4.716324882\C,0,12.80597
 13117,4.1045428799,-4.4734824646\C,0,11.9633083571,3.166402784,-3.8752
 487424\C,0,10.6631711821,3.5238504098,-3.5229220276\O,0,6.1491506035,5
 .5239084212,-2.4927951526\C,0,10.1792490403,4.8230381386,-3.7602914356
 \C,0,8.8070674038,5.1389388484,-3.368362077\C,0,8.1650041411,6.3129178
 919,-3.5091807688\C,0,6.7627194885,6.4504099633,-3.0466386328\O,0,1.88
 38889946,7.4152357568,-2.5429332773\C,0,2.7641006528,10.3025121804,-1.
 252560752\C,0,1.7040874425,11.4230633951,-1.3644369035\C,0,0.583587361
 7,10.9154009476,-2.3164729589\C,0,0.9296642384,9.5465291387,-2.9034344
 064\N,0,6.1726953904,7.6633109412,-3.2484018721\C,0,6.7284611008,8.814
 7967763,-3.9907655261\C,0,5.605458328,9.8663479038,-3.9177258041\C,0,2
 .4144060484,7.9385746453,-3.7509086857\C,0,3.8183182115,7.3890159103,-
 3.9360317793\C,0,4.7752302116,7.9001112305,-2.8578461082\C,0,4.7562964
 849,9.4302512556,-2.7039014118\C,0,3.3715724868,10.1123945974,-2.67014
 52286\C,0,2.3025796117,9.4645785993,-3.6053488426\H,0,0.504745406,6.16
 13728936,-5.7755299724\H,0,2.1584085202,5.6507639761,-5.3587876521\H,0
 ,0.9210356723,5.7967215087,-4.0773987018\H,0,-0.2081566093,13.49891653
 76,0.6859904505\H,0,0.8446209113,13.9935777434,-0.6505201553\H,0,-0.55
 95087298,12.9611945903,-0.9630571463\H,0,2.784047798,11.3686215367,1.3
 151400007\H,0,2.9483700074,12.9745345352,0.5861898578\H,0,1.7931162256
 ,12.7096358009,1.9019016416\H,0,0.4971555361,11.1384696187,0.404860098
 8\H,0,-0.7179141521,7.3989554737,-2.0821002908\H,0,0.1223770691,7.0467
 729227,-0.5551124134\H,0,-0.7225587017,8.5914424242,-0.7609626401\H,0,
 2.8239052081,8.2503255207,-0.4887416093\H,0,1.5300479955,9.2391281507,
 0.1757079615\H,0,6.2097464707,9.1942024011,-1.4016687648\H,0,10.694952
 4834,6.7691542205,-4.5596871974\H,0,12.9919523116,6.1353207061,-5.1819
 888096\H,0,13.8206930373,3.8300977638,-4.7499433442\H,0,12.3178358684,
 2.1570954556,-3.6829548136\H,0,10.0060885031,2.7930254874,-3.056688261
 \H,0,8.2442692777,4.3272480804,-2.9092042738\H,0,8.6538506383,7.170858
 9276,-3.9586550568\H,0,3.5625835056,10.6052092129,-0.5779661429\H,0,-0
 .3672354659,10.8299015003,-1.7747808879\H,0,0.4037131794,11.6246648218
 ,-3.1316434365\H,0,0.1510140234,9.2204158574,-3.5983304391\H,0,6.97668
 62406,8.5421915111,-5.021449819\H,0,7.6426746056,9.1728719012,-3.50547
 40136\H,0,5.9891578142,10.8787010432,-3.7722999427\H,0,5.0035187678,9.
 8572833139,-4.8321851363\H,0,4.1742057838,7.6832223572,-4.9290950047\H
 ,0,3.8099345183,6.2964194581,-3.9004476547\\Version=ES64L-G16RevA.03\S
 tate=1-A\HF=-1445.3084346\RMSD=6.525e-09\PG=C01 [X(C28H37N1O4)]\\@


 ASKING FOR EFFICIENCY AND ADAPTABILITY IN THE SAME PROGRAM IS LIKE
 ASKING FOR A BEAUTIFUL AND MODEST WIFE ...
 WE'LL PROBABLY HAVE TO SETTLE FOR ONE OR THE OTHER.

             -- THE PSYCHOLOGY OF COMPUTER PROGRAMMING
                GERALD M. WEINBERG
 Job cpu time:       0 days 15 hours 18 minutes 48.7 seconds.
 Elapsed time:       0 days  1 hours 32 minutes 11.3 seconds.
 File lengths (MBytes):  RWF=   4679 Int=      0 D2E=      0 Chk=   1378 Scr=      1
 Normal termination of Gaussian 16 at Thu Jun 24 00:24:10 2021.
