 Entering Gaussian System, Link 0=g16
 Input=Revised-SAH-42C-3-opt_freq-conf-3.com
 Output=Revised-SAH-42C-3-opt_freq-conf-3.log
 Initial command:
 /home/admin/g16/l1.exe "/home/admin/tmp/Gau-49925.inp" -scrdir="/home/admin/tmp/"
 Entering Link 1 = /home/admin/g16/l1.exe PID=     49926.
  
 Copyright (c) 1988,1990,1992,1993,1995,1998,2003,2009,2016,
            Gaussian, Inc.  All Rights Reserved.
  
 This is part of the Gaussian(R) 16 program.  It is based on
 the Gaussian(R) 09 system (copyright 2009, Gaussian, Inc.),
 the Gaussian(R) 03 system (copyright 2003, Gaussian, Inc.),
 the Gaussian(R) 98 system (copyright 1998, Gaussian, Inc.),
 the Gaussian(R) 94 system (copyright 1995, Gaussian, Inc.),
 the Gaussian 92(TM) system (copyright 1992, Gaussian, Inc.),
 the Gaussian 90(TM) system (copyright 1990, Gaussian, Inc.),
 the Gaussian 88(TM) system (copyright 1988, Gaussian, Inc.),
 the Gaussian 86(TM) system (copyright 1986, Carnegie Mellon
 University), and the Gaussian 82(TM) system (copyright 1983,
 Carnegie Mellon University). Gaussian is a federally registered
 trademark of Gaussian, Inc.
  
 This software contains proprietary and confidential information,
 including trade secrets, belonging to Gaussian, Inc.
  
 This software is provided under written license and may be
 used, copied, transmitted, or stored only in accord with that
 written license.
  
 The following legend is applicable only to US Government
 contracts under FAR:
  
                    RESTRICTED RIGHTS LEGEND
  
 Use, reproduction and disclosure by the US Government is
 subject to restrictions as set forth in subparagraphs (a)
 and (c) of the Commercial Computer Software - Restricted
 Rights clause in FAR 52.227-19.
  
 Gaussian, Inc.
 340 Quinnipiac St., Bldg. 40, Wallingford CT 06492
  
  
 ---------------------------------------------------------------
 Warning -- This program may not be used in any manner that
 competes with the business of Gaussian, Inc. or will provide
 assistance to any competitor of Gaussian, Inc.  The licensee
 of this program is prohibited from giving any competitor of
 Gaussian, Inc. access to this program.  By using this program,
 the user acknowledges that Gaussian, Inc. is engaged in the
 business of creating and licensing software in the field of
 computational chemistry and represents and warrants to the
 licensee that it is not a competitor of Gaussian, Inc. and that
 it will not use this program in any manner prohibited above.
 ---------------------------------------------------------------
  

 Cite this work as:
 Gaussian 16, Revision A.03,
 M. J. Frisch, G. W. Trucks, H. B. Schlegel, G. E. Scuseria, 
 M. A. Robb, J. R. Cheeseman, G. Scalmani, V. Barone, 
 G. A. Petersson, H. Nakatsuji, X. Li, M. Caricato, A. V. Marenich, 
 J. Bloino, B. G. Janesko, R. Gomperts, B. Mennucci, H. P. Hratchian, 
 J. V. Ortiz, A. F. Izmaylov, J. L. Sonnenberg, D. Williams-Young, 
 F. Ding, F. Lipparini, F. Egidi, J. Goings, B. Peng, A. Petrone, 
 T. Henderson, D. Ranasinghe, V. G. Zakrzewski, J. Gao, N. Rega, 
 G. Zheng, W. Liang, M. Hada, M. Ehara, K. Toyota, R. Fukuda, 
 J. Hasegawa, M. Ishida, T. Nakajima, Y. Honda, O. Kitao, H. Nakai, 
 T. Vreven, K. Throssell, J. A. Montgomery, Jr., J. E. Peralta, 
 F. Ogliaro, M. J. Bearpark, J. J. Heyd, E. N. Brothers, K. N. Kudin, 
 V. N. Staroverov, T. A. Keith, R. Kobayashi, J. Normand, 
 K. Raghavachari, A. P. Rendell, J. C. Burant, S. S. Iyengar, 
 J. Tomasi, M. Cossi, J. M. Millam, M. Klene, C. Adamo, R. Cammi, 
 J. W. Ochterski, R. L. Martin, K. Morokuma, O. Farkas, 
 J. B. Foresman, and D. J. Fox, Gaussian, Inc., Wallingford CT, 2016.
 
 ******************************************
 Gaussian 16:  ES64L-G16RevA.03 25-Dec-2016
                19-Jun-2021 
 ******************************************
 %mem=40gb
 %nproc=20
 Will use up to   20 processors via shared memory.
 %chk=Revised-SAH-42C-3-conf-3.chk
 ----------------------------------------------------------------------
 # b3lyp/6-31G(d) opt freq=noraman em=gd3bj integral(ultrafinegrid) scr
 f=(iefpcm,read,solvent=methanol)
 ----------------------------------------------------------------------
 1/18=20,19=15,26=6,38=1,40=2/1,3;
 2/9=110,12=2,17=6,18=5,40=1/2;
 3/5=1,6=6,7=1,11=2,25=1,30=1,70=2203,71=1,72=3,74=-5,75=-5,124=41/1,2,3;
 4//1;
 5/5=2,38=5,53=3/2;
 6/7=2,8=2,9=2,10=2,28=1/1;
 7//1,2,3,16;
 1/18=20,19=15,26=6/3(2);
 2/9=110/2;
 99//99;
 2/9=110/2;
 3/5=1,6=6,7=1,11=2,25=1,30=1,70=2205,71=1,72=3,74=-5,75=-5,124=41/1,2,3;
 4/5=5,16=3,69=1/1;
 5/5=2,38=5,53=3/2;
 7//1,2,3,16;
 1/18=20,19=15,26=6/3(-5);
 2/9=110/2;
 6/7=2,8=2,9=2,10=2,19=2,28=1/1;
 99/9=1/99;
 ----------------------------------------------------------------------
 Candidate Structure: Revised-SAH-42C-3, Conformer: 3 geometry optimiza
 tion and frequency calculation with methanol solvation
 ----------------------------------------------------------------------
 Symbolic Z-matrix:
 Charge =  0 Multiplicity = 1
 C                     1.33746   6.03903  -4.80112 
 O                     1.59481   7.43502  -4.73494 
 H                     2.17409   12.3207  -1.92806 
 C                     0.17346   13.2343  -0.42072 
 C                     2.0936    12.38222   0.91743 
 C                     1.04797   12.00326  -0.13625 
 C                    -0.13127   7.97684  -1.17054 
 C                     2.11356   9.08197  -0.71541 
 C                     1.15864   8.50254  -1.78032 
 H                     3.55409   11.08259  -3.12006 
 H                     2.33881   9.82085  -4.58772 
 O                     5.51013   9.8591   -1.52722 
 H                     4.65868   7.41236  -1.79766 
 C                     11.21004   5.73984  -3.66498 
 C                     12.50608   5.44303  -4.09514 
 C                     12.7885   4.19896  -4.65534 
 C                     11.77776   3.24836  -4.78 
 C                     10.48217   3.54439  -4.34925 
 O                     6.21003   5.47424  -2.42867 
 C                     10.18169   4.79778  -3.80076 
 C                     8.81268   5.05847  -3.33802 
 C                     8.18353   6.23426  -3.4937 
 C                     6.78771   6.39277  -3.00396 
 O                     1.85879   7.39648  -2.39004 
 C                     2.77289   10.35645  -1.27096 
 C                     1.68579   11.45933  -1.44887 
 C                     0.61802   10.92551  -2.42682 
 C                     0.95017   9.51856  -2.91797 
 N                     6.19167   7.61436  -3.22325 
 C                     6.75826   8.78242  -3.89073 
 C                     5.63362   9.81456  -3.90364 
 C                     2.41938   7.84571  -3.63083 
 C                     3.83174   7.31314  -3.80074 
 C                     4.81034   7.88024  -2.77728 
 C                     4.78008   9.41629  -2.68427 
 C                     3.39042   10.08327  -2.68812 
 C                     2.33014   9.38343  -3.58241 
 H                     0.61827   5.86946  -5.60763 
 H                     2.24551   5.48158  -5.04378 
 H                     0.89626   5.66784  -3.87196 
 H                    -0.28359   13.60612   0.5029 
 H                     0.76574   14.04781  -0.85365 
 H                    -0.64072   13.00351  -1.11378 
 H                     2.62085   11.49977   1.292 
 H                     2.8327    13.08009   0.5099 
 H                     1.62057   12.85907   1.783 
 H                     0.39773   11.23452   0.29902 
 H                    -0.75879   7.5069   -1.93604 
 H                     0.08002   7.20206  -0.42498 
 H                    -0.70805   8.77289  -0.69003 
 H                     2.88796   8.35425  -0.44581 
 H                     1.57704   9.31442   0.21048 
 H                     6.14018   9.15465  -1.2851 
 H                     11.01996   6.70842  -3.20996 
 H                     13.2967   6.18081  -3.9852 
 H                     13.79713   3.96749  -4.98769 
 H                     11.99679   2.2743   -5.20976 
 H                     9.70655   2.78834  -4.45263 
 H                     8.30197   4.21854  -2.86927 
 H                     8.66859   7.06585  -3.98203 
 H                     3.53952   10.7196  -0.58224 
 H                    -0.37427   10.90575  -1.96251 
 H                     0.54597   11.60339  -3.28634 
 H                     0.16429   9.18081  -3.60601 
 H                     7.08966   8.52304  -4.90062 
 H                     7.6185    9.12936  -3.30819 
 H                     6.03822   10.82961  -3.83403 
 H                     5.0607    9.73466  -4.83476 
 H                     4.17176   7.5098   -4.82632 
 H                     3.84032   6.22074  -3.69961 
 

 GradGradGradGradGradGradGradGradGradGradGradGradGradGradGradGradGradGrad
 Berny optimization.
 Initialization pass.
                           ----------------------------
                           !    Initial Parameters    !
                           ! (Angstroms and Degrees)  !
 --------------------------                            --------------------------
 ! Name  Definition              Value          Derivative Info.                !
 --------------------------------------------------------------------------------
 ! R1    R(1,2)                  1.4211         estimate D2E/DX2                !
 ! R2    R(1,38)                 1.0938         estimate D2E/DX2                !
 ! R3    R(1,39)                 1.0928         estimate D2E/DX2                !
 ! R4    R(1,40)                 1.0935         estimate D2E/DX2                !
 ! R5    R(2,32)                 1.4379         estimate D2E/DX2                !
 ! R6    R(3,26)                 1.1            estimate D2E/DX2                !
 ! R7    R(4,6)                  1.5366         estimate D2E/DX2                !
 ! R8    R(4,41)                 1.0955         estimate D2E/DX2                !
 ! R9    R(4,42)                 1.0955         estimate D2E/DX2                !
 ! R10   R(4,43)                 1.0938         estimate D2E/DX2                !
 ! R11   R(5,6)                  1.5321         estimate D2E/DX2                !
 ! R12   R(5,44)                 1.0941         estimate D2E/DX2                !
 ! R13   R(5,45)                 1.0952         estimate D2E/DX2                !
 ! R14   R(5,46)                 1.0956         estimate D2E/DX2                !
 ! R15   R(6,26)                 1.5574         estimate D2E/DX2                !
 ! R16   R(6,47)                 1.0969         estimate D2E/DX2                !
 ! R17   R(7,9)                  1.5205         estimate D2E/DX2                !
 ! R18   R(7,48)                 1.0957         estimate D2E/DX2                !
 ! R19   R(7,49)                 1.0958         estimate D2E/DX2                !
 ! R20   R(7,50)                 1.0942         estimate D2E/DX2                !
 ! R21   R(8,9)                  1.5433         estimate D2E/DX2                !
 ! R22   R(8,25)                 1.5387         estimate D2E/DX2                !
 ! R23   R(8,51)                 1.0963         estimate D2E/DX2                !
 ! R24   R(8,52)                 1.0951         estimate D2E/DX2                !
 ! R25   R(9,24)                 1.4441         estimate D2E/DX2                !
 ! R26   R(9,28)                 1.5395         estimate D2E/DX2                !
 ! R27   R(10,36)                1.1009         estimate D2E/DX2                !
 ! R28   R(11,37)                1.0964         estimate D2E/DX2                !
 ! R29   R(12,35)                1.438          estimate D2E/DX2                !
 ! R30   R(12,53)                0.9756         estimate D2E/DX2                !
 ! R31   R(13,34)                1.0962         estimate D2E/DX2                !
 ! R32   R(14,15)                1.3974         estimate D2E/DX2                !
 ! R33   R(14,20)                1.4012         estimate D2E/DX2                !
 ! R34   R(14,54)                1.0869         estimate D2E/DX2                !
 ! R35   R(15,16)                1.3933         estimate D2E/DX2                !
 ! R36   R(15,55)                1.087          estimate D2E/DX2                !
 ! R37   R(16,17)                1.3931         estimate D2E/DX2                !
 ! R38   R(16,56)                1.0869         estimate D2E/DX2                !
 ! R39   R(17,18)                1.397          estimate D2E/DX2                !
 ! R40   R(17,57)                1.087          estimate D2E/DX2                !
 ! R41   R(18,20)                1.4008         estimate D2E/DX2                !
 ! R42   R(18,58)                1.0881         estimate D2E/DX2                !
 ! R43   R(19,23)                1.2282         estimate D2E/DX2                !
 ! R44   R(20,21)                1.4684         estimate D2E/DX2                !
 ! R45   R(21,22)                1.3426         estimate D2E/DX2                !
 ! R46   R(21,59)                1.089          estimate D2E/DX2                !
 ! R47   R(22,23)                1.4877         estimate D2E/DX2                !
 ! R48   R(22,60)                1.0795         estimate D2E/DX2                !
 ! R49   R(23,29)                1.3768         estimate D2E/DX2                !
 ! R50   R(24,32)                1.4337         estimate D2E/DX2                !
 ! R51   R(25,26)                1.5588         estimate D2E/DX2                !
 ! R52   R(25,36)                1.5698         estimate D2E/DX2                !
 ! R53   R(25,61)                1.0927         estimate D2E/DX2                !
 ! R54   R(26,27)                1.5432         estimate D2E/DX2                !
 ! R55   R(27,28)                1.5268         estimate D2E/DX2                !
 ! R56   R(27,62)                1.0957         estimate D2E/DX2                !
 ! R57   R(27,63)                1.097          estimate D2E/DX2                !
 ! R58   R(28,37)                1.5375         estimate D2E/DX2                !
 ! R59   R(28,64)                1.0978         estimate D2E/DX2                !
 ! R60   R(29,30)                1.4598         estimate D2E/DX2                !
 ! R61   R(29,34)                1.4757         estimate D2E/DX2                !
 ! R62   R(30,31)                1.5265         estimate D2E/DX2                !
 ! R63   R(30,65)                1.0941         estimate D2E/DX2                !
 ! R64   R(30,66)                1.0953         estimate D2E/DX2                !
 ! R65   R(31,35)                1.5408         estimate D2E/DX2                !
 ! R66   R(31,67)                1.0949         estimate D2E/DX2                !
 ! R67   R(31,68)                1.0962         estimate D2E/DX2                !
 ! R68   R(32,33)                1.519          estimate D2E/DX2                !
 ! R69   R(32,37)                1.5411         estimate D2E/DX2                !
 ! R70   R(33,34)                1.5254         estimate D2E/DX2                !
 ! R71   R(33,69)                1.0982         estimate D2E/DX2                !
 ! R72   R(33,70)                1.0971         estimate D2E/DX2                !
 ! R73   R(34,35)                1.5392         estimate D2E/DX2                !
 ! R74   R(35,36)                1.5414         estimate D2E/DX2                !
 ! R75   R(36,37)                1.5536         estimate D2E/DX2                !
 ! A1    A(2,1,38)             107.8006         estimate D2E/DX2                !
 ! A2    A(2,1,39)             111.1604         estimate D2E/DX2                !
 ! A3    A(2,1,40)             111.5279         estimate D2E/DX2                !
 ! A4    A(38,1,39)            107.6702         estimate D2E/DX2                !
 ! A5    A(38,1,40)            107.9748         estimate D2E/DX2                !
 ! A6    A(39,1,40)            110.5355         estimate D2E/DX2                !
 ! A7    A(1,2,32)             114.8461         estimate D2E/DX2                !
 ! A8    A(6,4,41)             110.6866         estimate D2E/DX2                !
 ! A9    A(6,4,42)             111.1253         estimate D2E/DX2                !
 ! A10   A(6,4,43)             111.831          estimate D2E/DX2                !
 ! A11   A(41,4,42)            107.8609         estimate D2E/DX2                !
 ! A12   A(41,4,43)            107.1726         estimate D2E/DX2                !
 ! A13   A(42,4,43)            107.9825         estimate D2E/DX2                !
 ! A14   A(6,5,44)             111.3982         estimate D2E/DX2                !
 ! A15   A(6,5,45)             111.241          estimate D2E/DX2                !
 ! A16   A(6,5,46)             110.8755         estimate D2E/DX2                !
 ! A17   A(44,5,45)            108.43           estimate D2E/DX2                !
 ! A18   A(44,5,46)            106.7764         estimate D2E/DX2                !
 ! A19   A(45,5,46)            107.9407         estimate D2E/DX2                !
 ! A20   A(4,6,5)              108.5166         estimate D2E/DX2                !
 ! A21   A(4,6,26)             110.9062         estimate D2E/DX2                !
 ! A22   A(4,6,47)             107.3104         estimate D2E/DX2                !
 ! A23   A(5,6,26)             112.7387         estimate D2E/DX2                !
 ! A24   A(5,6,47)             107.7594         estimate D2E/DX2                !
 ! A25   A(26,6,47)            109.4167         estimate D2E/DX2                !
 ! A26   A(9,7,48)             110.7287         estimate D2E/DX2                !
 ! A27   A(9,7,49)             110.7158         estimate D2E/DX2                !
 ! A28   A(9,7,50)             111.824          estimate D2E/DX2                !
 ! A29   A(48,7,49)            106.4098         estimate D2E/DX2                !
 ! A30   A(48,7,50)            108.4775         estimate D2E/DX2                !
 ! A31   A(49,7,50)            108.4964         estimate D2E/DX2                !
 ! A32   A(9,8,25)             109.0858         estimate D2E/DX2                !
 ! A33   A(9,8,51)             110.9488         estimate D2E/DX2                !
 ! A34   A(9,8,52)             111.0988         estimate D2E/DX2                !
 ! A35   A(25,8,51)            109.6277         estimate D2E/DX2                !
 ! A36   A(25,8,52)            109.8393         estimate D2E/DX2                !
 ! A37   A(51,8,52)            106.204          estimate D2E/DX2                !
 ! A38   A(7,9,8)              112.2093         estimate D2E/DX2                !
 ! A39   A(7,9,24)             108.4104         estimate D2E/DX2                !
 ! A40   A(7,9,28)             114.1828         estimate D2E/DX2                !
 ! A41   A(8,9,24)             106.1959         estimate D2E/DX2                !
 ! A42   A(8,9,28)             110.2385         estimate D2E/DX2                !
 ! A43   A(24,9,28)            105.0188         estimate D2E/DX2                !
 ! A44   A(35,12,53)           107.7697         estimate D2E/DX2                !
 ! A45   A(15,14,20)           120.5319         estimate D2E/DX2                !
 ! A46   A(15,14,54)           118.7079         estimate D2E/DX2                !
 ! A47   A(20,14,54)           120.7535         estimate D2E/DX2                !
 ! A48   A(14,15,16)           120.0923         estimate D2E/DX2                !
 ! A49   A(14,15,55)           119.9529         estimate D2E/DX2                !
 ! A50   A(16,15,55)           119.9529         estimate D2E/DX2                !
 ! A51   A(15,16,17)           119.8803         estimate D2E/DX2                !
 ! A52   A(15,16,56)           120.0789         estimate D2E/DX2                !
 ! A53   A(17,16,56)           120.0392         estimate D2E/DX2                !
 ! A54   A(16,17,18)           120.0433         estimate D2E/DX2                !
 ! A55   A(16,17,57)           120.0438         estimate D2E/DX2                !
 ! A56   A(18,17,57)           119.9126         estimate D2E/DX2                !
 ! A57   A(17,18,20)           120.6155         estimate D2E/DX2                !
 ! A58   A(17,18,58)           118.9828         estimate D2E/DX2                !
 ! A59   A(20,18,58)           120.4002         estimate D2E/DX2                !
 ! A60   A(14,20,18)           118.8222         estimate D2E/DX2                !
 ! A61   A(14,20,21)           122.2977         estimate D2E/DX2                !
 ! A62   A(18,20,21)           118.8317         estimate D2E/DX2                !
 ! A63   A(20,21,22)           123.7672         estimate D2E/DX2                !
 ! A64   A(20,21,59)           115.8436         estimate D2E/DX2                !
 ! A65   A(22,21,59)           120.3702         estimate D2E/DX2                !
 ! A66   A(21,22,23)           119.6571         estimate D2E/DX2                !
 ! A67   A(21,22,60)           121.1004         estimate D2E/DX2                !
 ! A68   A(23,22,60)           119.2368         estimate D2E/DX2                !
 ! A69   A(19,23,22)           121.0522         estimate D2E/DX2                !
 ! A70   A(19,23,29)           122.3136         estimate D2E/DX2                !
 ! A71   A(22,23,29)           116.6332         estimate D2E/DX2                !
 ! A72   A(9,24,32)            108.3602         estimate D2E/DX2                !
 ! A73   A(8,25,26)            109.1718         estimate D2E/DX2                !
 ! A74   A(8,25,36)            110.5091         estimate D2E/DX2                !
 ! A75   A(8,25,61)            110.3862         estimate D2E/DX2                !
 ! A76   A(26,25,36)           107.1235         estimate D2E/DX2                !
 ! A77   A(26,25,61)           109.0323         estimate D2E/DX2                !
 ! A78   A(36,25,61)           110.5394         estimate D2E/DX2                !
 ! A79   A(3,26,6)             105.9895         estimate D2E/DX2                !
 ! A80   A(3,26,25)            107.1077         estimate D2E/DX2                !
 ! A81   A(3,26,27)            107.575          estimate D2E/DX2                !
 ! A82   A(6,26,25)            115.8818         estimate D2E/DX2                !
 ! A83   A(6,26,27)            111.8114         estimate D2E/DX2                !
 ! A84   A(25,26,27)           108.0669         estimate D2E/DX2                !
 ! A85   A(26,27,28)           111.8454         estimate D2E/DX2                !
 ! A86   A(26,27,62)           111.3641         estimate D2E/DX2                !
 ! A87   A(26,27,63)           109.1598         estimate D2E/DX2                !
 ! A88   A(28,27,62)           108.4641         estimate D2E/DX2                !
 ! A89   A(28,27,63)           109.3705         estimate D2E/DX2                !
 ! A90   A(62,27,63)           106.4793         estimate D2E/DX2                !
 ! A91   A(9,28,27)            113.5729         estimate D2E/DX2                !
 ! A92   A(9,28,37)             98.0367         estimate D2E/DX2                !
 ! A93   A(9,28,64)            110.9199         estimate D2E/DX2                !
 ! A94   A(27,28,37)           114.5352         estimate D2E/DX2                !
 ! A95   A(27,28,64)           109.2326         estimate D2E/DX2                !
 ! A96   A(37,28,64)           110.1591         estimate D2E/DX2                !
 ! A97   A(23,29,30)           127.9339         estimate D2E/DX2                !
 ! A98   A(23,29,34)           121.1283         estimate D2E/DX2                !
 ! A99   A(30,29,34)           110.9367         estimate D2E/DX2                !
 ! A100  A(29,30,31)           105.0067         estimate D2E/DX2                !
 ! A101  A(29,30,65)           110.4832         estimate D2E/DX2                !
 ! A102  A(29,30,66)           108.367          estimate D2E/DX2                !
 ! A103  A(31,30,65)           112.0645         estimate D2E/DX2                !
 ! A104  A(31,30,66)           111.6511         estimate D2E/DX2                !
 ! A105  A(65,30,66)           109.1546         estimate D2E/DX2                !
 ! A106  A(30,31,35)           103.1003         estimate D2E/DX2                !
 ! A107  A(30,31,67)           110.7336         estimate D2E/DX2                !
 ! A108  A(30,31,68)           110.057          estimate D2E/DX2                !
 ! A109  A(35,31,67)           113.2046         estimate D2E/DX2                !
 ! A110  A(35,31,68)           111.338          estimate D2E/DX2                !
 ! A111  A(67,31,68)           108.3431         estimate D2E/DX2                !
 ! A112  A(2,32,24)            110.5365         estimate D2E/DX2                !
 ! A113  A(2,32,33)            110.3144         estimate D2E/DX2                !
 ! A114  A(2,32,37)            106.0161         estimate D2E/DX2                !
 ! A115  A(24,32,33)           110.5182         estimate D2E/DX2                !
 ! A116  A(24,32,37)           105.2367         estimate D2E/DX2                !
 ! A117  A(33,32,37)           114.0296         estimate D2E/DX2                !
 ! A118  A(32,33,34)           113.0249         estimate D2E/DX2                !
 ! A119  A(32,33,69)           109.2418         estimate D2E/DX2                !
 ! A120  A(32,33,70)           110.2468         estimate D2E/DX2                !
 ! A121  A(34,33,69)           111.1844         estimate D2E/DX2                !
 ! A122  A(34,33,70)           107.6572         estimate D2E/DX2                !
 ! A123  A(69,33,70)           105.1861         estimate D2E/DX2                !
 ! A124  A(13,34,29)           108.8259         estimate D2E/DX2                !
 ! A125  A(13,34,33)           110.6201         estimate D2E/DX2                !
 ! A126  A(13,34,35)           111.6689         estimate D2E/DX2                !
 ! A127  A(29,34,33)           109.316          estimate D2E/DX2                !
 ! A128  A(29,34,35)           102.5023         estimate D2E/DX2                !
 ! A129  A(33,34,35)           113.5132         estimate D2E/DX2                !
 ! A130  A(12,35,31)           106.0186         estimate D2E/DX2                !
 ! A131  A(12,35,34)           110.2406         estimate D2E/DX2                !
 ! A132  A(12,35,36)           109.0543         estimate D2E/DX2                !
 ! A133  A(31,35,34)           101.4928         estimate D2E/DX2                !
 ! A134  A(31,35,36)           112.6804         estimate D2E/DX2                !
 ! A135  A(34,35,36)           116.7049         estimate D2E/DX2                !
 ! A136  A(10,36,25)           104.7568         estimate D2E/DX2                !
 ! A137  A(10,36,35)           105.0533         estimate D2E/DX2                !
 ! A138  A(10,36,37)           106.5292         estimate D2E/DX2                !
 ! A139  A(25,36,35)           115.3206         estimate D2E/DX2                !
 ! A140  A(25,36,37)           109.2429         estimate D2E/DX2                !
 ! A141  A(35,36,37)           114.9478         estimate D2E/DX2                !
 ! A142  A(11,37,28)           111.6101         estimate D2E/DX2                !
 ! A143  A(11,37,32)           111.6432         estimate D2E/DX2                !
 ! A144  A(11,37,36)           110.041          estimate D2E/DX2                !
 ! A145  A(28,37,32)            98.815          estimate D2E/DX2                !
 ! A146  A(28,37,36)           108.9157         estimate D2E/DX2                !
 ! A147  A(32,37,36)           115.3432         estimate D2E/DX2                !
 ! D1    D(38,1,2,32)          173.8494         estimate D2E/DX2                !
 ! D2    D(39,1,2,32)          -68.3672         estimate D2E/DX2                !
 ! D3    D(40,1,2,32)           55.4849         estimate D2E/DX2                !
 ! D4    D(1,2,32,24)          -55.1401         estimate D2E/DX2                !
 ! D5    D(1,2,32,33)           67.3937         estimate D2E/DX2                !
 ! D6    D(1,2,32,37)         -168.6875         estimate D2E/DX2                !
 ! D7    D(41,4,6,5)           -56.3754         estimate D2E/DX2                !
 ! D8    D(41,4,6,26)          179.2715         estimate D2E/DX2                !
 ! D9    D(41,4,6,47)           59.8125         estimate D2E/DX2                !
 ! D10   D(42,4,6,5)            63.4502         estimate D2E/DX2                !
 ! D11   D(42,4,6,26)          -60.903          estimate D2E/DX2                !
 ! D12   D(42,4,6,47)          179.6381         estimate D2E/DX2                !
 ! D13   D(43,4,6,5)          -175.798          estimate D2E/DX2                !
 ! D14   D(43,4,6,26)           59.8488         estimate D2E/DX2                !
 ! D15   D(43,4,6,47)          -59.6101         estimate D2E/DX2                !
 ! D16   D(44,5,6,4)           169.4538         estimate D2E/DX2                !
 ! D17   D(44,5,6,26)          -67.289          estimate D2E/DX2                !
 ! D18   D(44,5,6,47)           53.5562         estimate D2E/DX2                !
 ! D19   D(45,5,6,4)           -69.4406         estimate D2E/DX2                !
 ! D20   D(45,5,6,26)           53.8166         estimate D2E/DX2                !
 ! D21   D(45,5,6,47)          174.6618         estimate D2E/DX2                !
 ! D22   D(46,5,6,4)            50.6879         estimate D2E/DX2                !
 ! D23   D(46,5,6,26)          173.9451         estimate D2E/DX2                !
 ! D24   D(46,5,6,47)          -65.2097         estimate D2E/DX2                !
 ! D25   D(4,6,26,3)            51.938          estimate D2E/DX2                !
 ! D26   D(4,6,26,25)          170.5679         estimate D2E/DX2                !
 ! D27   D(4,6,26,27)          -64.9985         estimate D2E/DX2                !
 ! D28   D(5,6,26,3)           -69.9797         estimate D2E/DX2                !
 ! D29   D(5,6,26,25)           48.6501         estimate D2E/DX2                !
 ! D30   D(5,6,26,27)          173.0838         estimate D2E/DX2                !
 ! D31   D(47,6,26,3)          170.1263         estimate D2E/DX2                !
 ! D32   D(47,6,26,25)         -71.2438         estimate D2E/DX2                !
 ! D33   D(47,6,26,27)          53.1898         estimate D2E/DX2                !
 ! D34   D(48,7,9,8)          -175.9229         estimate D2E/DX2                !
 ! D35   D(48,7,9,24)          -58.9592         estimate D2E/DX2                !
 ! D36   D(48,7,9,28)           57.7114         estimate D2E/DX2                !
 ! D37   D(49,7,9,8)           -58.1442         estimate D2E/DX2                !
 ! D38   D(49,7,9,24)           58.8195         estimate D2E/DX2                !
 ! D39   D(49,7,9,28)          175.4902         estimate D2E/DX2                !
 ! D40   D(50,7,9,8)            62.9741         estimate D2E/DX2                !
 ! D41   D(50,7,9,24)          179.9378         estimate D2E/DX2                !
 ! D42   D(50,7,9,28)          -63.3916         estimate D2E/DX2                !
 ! D43   D(25,8,9,7)          -140.0842         estimate D2E/DX2                !
 ! D44   D(25,8,9,24)          101.6336         estimate D2E/DX2                !
 ! D45   D(25,8,9,28)          -11.6129         estimate D2E/DX2                !
 ! D46   D(51,8,9,7)            99.0474         estimate D2E/DX2                !
 ! D47   D(51,8,9,24)          -19.2347         estimate D2E/DX2                !
 ! D48   D(51,8,9,28)         -132.4813         estimate D2E/DX2                !
 ! D49   D(52,8,9,7)           -18.857          estimate D2E/DX2                !
 ! D50   D(52,8,9,24)         -137.1391         estimate D2E/DX2                !
 ! D51   D(52,8,9,28)          109.6143         estimate D2E/DX2                !
 ! D52   D(9,8,25,26)           66.7731         estimate D2E/DX2                !
 ! D53   D(9,8,25,36)          -50.7996         estimate D2E/DX2                !
 ! D54   D(9,8,25,61)         -173.3904         estimate D2E/DX2                !
 ! D55   D(51,8,25,26)        -171.5544         estimate D2E/DX2                !
 ! D56   D(51,8,25,36)          70.8729         estimate D2E/DX2                !
 ! D57   D(51,8,25,61)         -51.7179         estimate D2E/DX2                !
 ! D58   D(52,8,25,26)         -55.2181         estimate D2E/DX2                !
 ! D59   D(52,8,25,36)        -172.7908         estimate D2E/DX2                !
 ! D60   D(52,8,25,61)          64.6184         estimate D2E/DX2                !
 ! D61   D(7,9,24,32)          139.7785         estimate D2E/DX2                !
 ! D62   D(8,9,24,32)          -99.4562         estimate D2E/DX2                !
 ! D63   D(28,9,24,32)          17.3448         estimate D2E/DX2                !
 ! D64   D(7,9,28,27)           79.0525         estimate D2E/DX2                !
 ! D65   D(7,9,28,37)         -159.6716         estimate D2E/DX2                !
 ! D66   D(7,9,28,64)          -44.4207         estimate D2E/DX2                !
 ! D67   D(8,9,28,27)          -48.3335         estimate D2E/DX2                !
 ! D68   D(8,9,28,37)           72.9424         estimate D2E/DX2                !
 ! D69   D(8,9,28,64)         -171.8067         estimate D2E/DX2                !
 ! D70   D(24,9,28,27)        -162.3319         estimate D2E/DX2                !
 ! D71   D(24,9,28,37)         -41.056          estimate D2E/DX2                !
 ! D72   D(24,9,28,64)          74.1949         estimate D2E/DX2                !
 ! D73   D(53,12,35,31)        -86.3091         estimate D2E/DX2                !
 ! D74   D(53,12,35,34)         22.7655         estimate D2E/DX2                !
 ! D75   D(53,12,35,36)        152.1182         estimate D2E/DX2                !
 ! D76   D(20,14,15,16)         -0.4883         estimate D2E/DX2                !
 ! D77   D(20,14,15,55)       -179.9957         estimate D2E/DX2                !
 ! D78   D(54,14,15,16)        178.5786         estimate D2E/DX2                !
 ! D79   D(54,14,15,55)         -0.9288         estimate D2E/DX2                !
 ! D80   D(15,14,20,18)          1.317          estimate D2E/DX2                !
 ! D81   D(15,14,20,21)        178.7564         estimate D2E/DX2                !
 ! D82   D(54,14,20,18)       -177.7307         estimate D2E/DX2                !
 ! D83   D(54,14,20,21)         -0.2912         estimate D2E/DX2                !
 ! D84   D(14,15,16,17)         -0.319          estimate D2E/DX2                !
 ! D85   D(14,15,16,56)       -179.856          estimate D2E/DX2                !
 ! D86   D(55,15,16,17)        179.1884         estimate D2E/DX2                !
 ! D87   D(55,15,16,56)         -0.3486         estimate D2E/DX2                !
 ! D88   D(15,16,17,18)          0.2752         estimate D2E/DX2                !
 ! D89   D(15,16,17,57)       -179.5392         estimate D2E/DX2                !
 ! D90   D(56,16,17,18)        179.8123         estimate D2E/DX2                !
 ! D91   D(56,16,17,57)         -0.0021         estimate D2E/DX2                !
 ! D92   D(16,17,18,20)          0.5773         estimate D2E/DX2                !
 ! D93   D(16,17,18,58)       -179.8558         estimate D2E/DX2                !
 ! D94   D(57,17,18,20)       -179.6081         estimate D2E/DX2                !
 ! D95   D(57,17,18,58)         -0.0411         estimate D2E/DX2                !
 ! D96   D(17,18,20,14)         -1.3621         estimate D2E/DX2                !
 ! D97   D(17,18,20,21)       -178.8915         estimate D2E/DX2                !
 ! D98   D(58,18,20,14)        179.0771         estimate D2E/DX2                !
 ! D99   D(58,18,20,21)          1.5477         estimate D2E/DX2                !
 ! D100  D(14,20,21,22)         40.9629         estimate D2E/DX2                !
 ! D101  D(14,20,21,59)       -140.6235         estimate D2E/DX2                !
 ! D102  D(18,20,21,22)       -141.5979         estimate D2E/DX2                !
 ! D103  D(18,20,21,59)         36.8157         estimate D2E/DX2                !
 ! D104  D(20,21,22,23)        179.2383         estimate D2E/DX2                !
 ! D105  D(20,21,22,60)          0.1143         estimate D2E/DX2                !
 ! D106  D(59,21,22,23)          0.8932         estimate D2E/DX2                !
 ! D107  D(59,21,22,60)       -178.2308         estimate D2E/DX2                !
 ! D108  D(21,22,23,19)          1.7972         estimate D2E/DX2                !
 ! D109  D(21,22,23,29)       -178.5485         estimate D2E/DX2                !
 ! D110  D(60,22,23,19)       -179.0624         estimate D2E/DX2                !
 ! D111  D(60,22,23,29)          0.592          estimate D2E/DX2                !
 ! D112  D(19,23,29,30)       -179.864          estimate D2E/DX2                !
 ! D113  D(19,23,29,34)         -0.2789         estimate D2E/DX2                !
 ! D114  D(22,23,29,30)          0.4864         estimate D2E/DX2                !
 ! D115  D(22,23,29,34)       -179.9286         estimate D2E/DX2                !
 ! D116  D(9,24,32,2)         -100.0064         estimate D2E/DX2                !
 ! D117  D(9,24,32,33)         137.579          estimate D2E/DX2                !
 ! D118  D(9,24,32,37)          14.0355         estimate D2E/DX2                !
 ! D119  D(8,25,26,3)         -175.1191         estimate D2E/DX2                !
 ! D120  D(8,25,26,6)           66.8676         estimate D2E/DX2                !
 ! D121  D(8,25,26,27)         -59.4787         estimate D2E/DX2                !
 ! D122  D(36,25,26,3)         -55.4327         estimate D2E/DX2                !
 ! D123  D(36,25,26,6)        -173.4461         estimate D2E/DX2                !
 ! D124  D(36,25,26,27)         60.2077         estimate D2E/DX2                !
 ! D125  D(61,25,26,3)          64.2128         estimate D2E/DX2                !
 ! D126  D(61,25,26,6)         -53.8006         estimate D2E/DX2                !
 ! D127  D(61,25,26,27)        179.8532         estimate D2E/DX2                !
 ! D128  D(8,25,36,10)         163.3972         estimate D2E/DX2                !
 ! D129  D(8,25,36,35)         -81.6578         estimate D2E/DX2                !
 ! D130  D(8,25,36,37)          49.5959         estimate D2E/DX2                !
 ! D131  D(26,25,36,10)         44.5723         estimate D2E/DX2                !
 ! D132  D(26,25,36,35)        159.5173         estimate D2E/DX2                !
 ! D133  D(26,25,36,37)        -69.2291         estimate D2E/DX2                !
 ! D134  D(61,25,36,10)        -74.1015         estimate D2E/DX2                !
 ! D135  D(61,25,36,35)         40.8435         estimate D2E/DX2                !
 ! D136  D(61,25,36,37)        172.0972         estimate D2E/DX2                !
 ! D137  D(3,26,27,28)         114.8979         estimate D2E/DX2                !
 ! D138  D(3,26,27,62)        -123.5545         estimate D2E/DX2                !
 ! D139  D(3,26,27,63)          -6.2721         estimate D2E/DX2                !
 ! D140  D(6,26,27,28)        -129.1265         estimate D2E/DX2                !
 ! D141  D(6,26,27,62)          -7.5789         estimate D2E/DX2                !
 ! D142  D(6,26,27,63)         109.7034         estimate D2E/DX2                !
 ! D143  D(25,26,27,28)         -0.4363         estimate D2E/DX2                !
 ! D144  D(25,26,27,62)        121.1113         estimate D2E/DX2                !
 ! D145  D(25,26,27,63)       -121.6064         estimate D2E/DX2                !
 ! D146  D(26,27,28,9)          55.4465         estimate D2E/DX2                !
 ! D147  D(26,27,28,37)        -56.0747         estimate D2E/DX2                !
 ! D148  D(26,27,28,64)        179.8364         estimate D2E/DX2                !
 ! D149  D(62,27,28,9)         -67.7584         estimate D2E/DX2                !
 ! D150  D(62,27,28,37)       -179.2796         estimate D2E/DX2                !
 ! D151  D(62,27,28,64)         56.6315         estimate D2E/DX2                !
 ! D152  D(63,27,28,9)         176.4945         estimate D2E/DX2                !
 ! D153  D(63,27,28,37)         64.9734         estimate D2E/DX2                !
 ! D154  D(63,27,28,64)        -59.1156         estimate D2E/DX2                !
 ! D155  D(9,28,37,11)         164.7918         estimate D2E/DX2                !
 ! D156  D(9,28,37,32)          47.2185         estimate D2E/DX2                !
 ! D157  D(9,28,37,36)         -73.5137         estimate D2E/DX2                !
 ! D158  D(27,28,37,11)        -74.6495         estimate D2E/DX2                !
 ! D159  D(27,28,37,32)        167.7772         estimate D2E/DX2                !
 ! D160  D(27,28,37,36)         47.045          estimate D2E/DX2                !
 ! D161  D(64,28,37,11)         48.9447         estimate D2E/DX2                !
 ! D162  D(64,28,37,32)        -68.6286         estimate D2E/DX2                !
 ! D163  D(64,28,37,36)        170.6393         estimate D2E/DX2                !
 ! D164  D(23,29,30,31)        177.3516         estimate D2E/DX2                !
 ! D165  D(23,29,30,65)         56.3339         estimate D2E/DX2                !
 ! D166  D(23,29,30,66)        -63.2098         estimate D2E/DX2                !
 ! D167  D(34,29,30,31)         -2.268          estimate D2E/DX2                !
 ! D168  D(34,29,30,65)       -123.2857         estimate D2E/DX2                !
 ! D169  D(34,29,30,66)        117.1705         estimate D2E/DX2                !
 ! D170  D(23,29,34,13)         39.1893         estimate D2E/DX2                !
 ! D171  D(23,29,34,33)        -81.7258         estimate D2E/DX2                !
 ! D172  D(23,29,34,35)        157.5606         estimate D2E/DX2                !
 ! D173  D(30,29,34,13)       -141.1612         estimate D2E/DX2                !
 ! D174  D(30,29,34,33)         97.9237         estimate D2E/DX2                !
 ! D175  D(30,29,34,35)        -22.7898         estimate D2E/DX2                !
 ! D176  D(29,30,31,35)         26.434          estimate D2E/DX2                !
 ! D177  D(29,30,31,67)        147.8097         estimate D2E/DX2                !
 ! D178  D(29,30,31,68)        -92.4263         estimate D2E/DX2                !
 ! D179  D(65,30,31,35)        146.4061         estimate D2E/DX2                !
 ! D180  D(65,30,31,67)        -92.2181         estimate D2E/DX2                !
 ! D181  D(65,30,31,68)         27.5459         estimate D2E/DX2                !
 ! D182  D(66,30,31,35)        -90.7859         estimate D2E/DX2                !
 ! D183  D(66,30,31,67)         30.5898         estimate D2E/DX2                !
 ! D184  D(66,30,31,68)        150.3538         estimate D2E/DX2                !
 ! D185  D(30,31,35,12)         75.4508         estimate D2E/DX2                !
 ! D186  D(30,31,35,34)        -39.7426         estimate D2E/DX2                !
 ! D187  D(30,31,35,36)       -165.3336         estimate D2E/DX2                !
 ! D188  D(67,31,35,12)        -44.2347         estimate D2E/DX2                !
 ! D189  D(67,31,35,34)       -159.4281         estimate D2E/DX2                !
 ! D190  D(67,31,35,36)         74.981          estimate D2E/DX2                !
 ! D191  D(68,31,35,12)       -166.5836         estimate D2E/DX2                !
 ! D192  D(68,31,35,34)         78.223          estimate D2E/DX2                !
 ! D193  D(68,31,35,36)        -47.368          estimate D2E/DX2                !
 ! D194  D(2,32,33,34)         171.4434         estimate D2E/DX2                !
 ! D195  D(2,32,33,69)          47.0947         estimate D2E/DX2                !
 ! D196  D(2,32,33,70)         -68.0231         estimate D2E/DX2                !
 ! D197  D(24,32,33,34)        -66.012          estimate D2E/DX2                !
 ! D198  D(24,32,33,69)        169.6392         estimate D2E/DX2                !
 ! D199  D(24,32,33,70)         54.5215         estimate D2E/DX2                !
 ! D200  D(37,32,33,34)         52.2883         estimate D2E/DX2                !
 ! D201  D(37,32,33,69)        -72.0605         estimate D2E/DX2                !
 ! D202  D(37,32,33,70)        172.8218         estimate D2E/DX2                !
 ! D203  D(2,32,37,11)         -39.7056         estimate D2E/DX2                !
 ! D204  D(2,32,37,28)          77.8426         estimate D2E/DX2                !
 ! D205  D(2,32,37,36)        -166.2809         estimate D2E/DX2                !
 ! D206  D(24,32,37,11)       -156.8642         estimate D2E/DX2                !
 ! D207  D(24,32,37,28)        -39.316          estimate D2E/DX2                !
 ! D208  D(24,32,37,36)         76.5605         estimate D2E/DX2                !
 ! D209  D(33,32,37,11)         81.8581         estimate D2E/DX2                !
 ! D210  D(33,32,37,28)       -160.5938         estimate D2E/DX2                !
 ! D211  D(33,32,37,36)        -44.7173         estimate D2E/DX2                !
 ! D212  D(32,33,34,13)         75.4286         estimate D2E/DX2                !
 ! D213  D(32,33,34,29)       -164.7542         estimate D2E/DX2                !
 ! D214  D(32,33,34,35)        -51.0094         estimate D2E/DX2                !
 ! D215  D(69,33,34,13)       -161.2905         estimate D2E/DX2                !
 ! D216  D(69,33,34,29)        -41.4733         estimate D2E/DX2                !
 ! D217  D(69,33,34,35)         72.2715         estimate D2E/DX2                !
 ! D218  D(70,33,34,13)        -46.5697         estimate D2E/DX2                !
 ! D219  D(70,33,34,29)         73.2476         estimate D2E/DX2                !
 ! D220  D(70,33,34,35)       -173.0076         estimate D2E/DX2                !
 ! D221  D(13,34,35,12)         42.278          estimate D2E/DX2                !
 ! D222  D(13,34,35,31)        154.3085         estimate D2E/DX2                !
 ! D223  D(13,34,35,36)        -82.8209         estimate D2E/DX2                !
 ! D224  D(29,34,35,12)        -74.0664         estimate D2E/DX2                !
 ! D225  D(29,34,35,31)         37.9641         estimate D2E/DX2                !
 ! D226  D(29,34,35,36)        160.8347         estimate D2E/DX2                !
 ! D227  D(33,34,35,12)        168.1609         estimate D2E/DX2                !
 ! D228  D(33,34,35,31)        -79.8086         estimate D2E/DX2                !
 ! D229  D(33,34,35,36)         43.062          estimate D2E/DX2                !
 ! D230  D(12,35,36,10)         82.1863         estimate D2E/DX2                !
 ! D231  D(12,35,36,25)        -32.5883         estimate D2E/DX2                !
 ! D232  D(12,35,36,37)       -161.0671         estimate D2E/DX2                !
 ! D233  D(31,35,36,10)        -35.2494         estimate D2E/DX2                !
 ! D234  D(31,35,36,25)       -150.0241         estimate D2E/DX2                !
 ! D235  D(31,35,36,37)         81.4972         estimate D2E/DX2                !
 ! D236  D(34,35,36,10)       -152.1188         estimate D2E/DX2                !
 ! D237  D(34,35,36,25)         93.1066         estimate D2E/DX2                !
 ! D238  D(34,35,36,37)        -35.3722         estimate D2E/DX2                !
 ! D239  D(10,36,37,11)         24.3393         estimate D2E/DX2                !
 ! D240  D(10,36,37,28)        -98.3042         estimate D2E/DX2                !
 ! D241  D(10,36,37,32)        151.7248         estimate D2E/DX2                !
 ! D242  D(25,36,37,11)        136.9839         estimate D2E/DX2                !
 ! D243  D(25,36,37,28)         14.3404         estimate D2E/DX2                !
 ! D244  D(25,36,37,32)        -95.6307         estimate D2E/DX2                !
 ! D245  D(35,36,37,11)        -91.5637         estimate D2E/DX2                !
 ! D246  D(35,36,37,28)        145.7928         estimate D2E/DX2                !
 ! D247  D(35,36,37,32)         35.8218         estimate D2E/DX2                !
 --------------------------------------------------------------------------------
 Trust Radius=3.00D-01 FncErr=5.00D-06 GrdErr=5.00D-06 EigMax=2.50D+02 EigMin=1.00D-04
 Number of steps in this run=    420 maximum allowed number of steps=    420.
 GradGradGradGradGradGradGradGradGradGradGradGradGradGradGradGradGradGrad

 Stoichiometry    C28H37NO4
 Framework group  C1[X(C28H37NO4)]
 Deg. of freedom   204
 Full point group                 C1      NOp   1
 Largest Abelian subgroup         C1      NOp   1
 Largest concise Abelian subgroup C1      NOp   1
                         Standard orientation:                         
 ---------------------------------------------------------------------
 Center     Atomic      Atomic             Coordinates (Angstroms)
 Number     Number       Type             X           Y           Z
 ---------------------------------------------------------------------
      1          6           0       -1.326736    4.236753    0.554550
      2          8           0       -1.825141    3.074424    1.202603
      3          1           0       -4.432714   -1.953924    1.219509
      4          6           0       -6.907587   -2.172390    0.251764
      5          6           0       -5.188073   -3.209314   -1.221908
      6          6           0       -5.627926   -1.902125   -0.554826
      7          6           0       -4.360246    2.061958   -1.717334
      8          6           0       -3.144215   -0.154144   -1.438333
      9          6           0       -3.405536    1.250773   -0.855612
     10          1           0       -2.386483   -1.303979    1.718201
     11          1           0       -2.430947    0.906237    2.297752
     12          8           0       -0.510167   -2.209009   -0.158107
     13          1           0        0.064875    0.115722   -1.182617
     14          6           0        6.800700   -1.460713   -0.021520
     15          6           0        8.130237   -1.769971    0.277708
     16          6           0        9.117356   -0.793299    0.163677
     17          6           0        8.777774    0.491045   -0.255751
     18          6           0        7.448871    0.800346   -0.555859
     19          8           0        2.474484    0.921713   -1.507151
     20          6           0        6.444715   -0.167879   -0.428072
     21          6           0        5.064799    0.192648   -0.777550
     22          6           0        3.987802   -0.229605   -0.096139
     23          6           0        2.630353    0.206312   -0.521109
     24          8           0       -2.127303    1.922355   -0.834830
     25          6           0       -3.102712   -1.175967   -0.288634
     26          6           0       -4.520362   -1.285703    0.350129
     27          6           0       -4.918765    0.110251    0.873654
     28          6           0       -3.824657    1.144959    0.621933
     29          7           0        1.572796   -0.238555    0.239997
     30          6           0        1.615958   -1.084546    1.428850
     31          6           0        0.164222   -1.196249    1.887411
     32          6           0       -1.597311    1.843549    0.495029
     33          6           0       -0.112953    1.523263    0.458478
     34          6           0        0.183886    0.132429   -0.093064
     35          6           0       -0.630806   -0.983719    0.584809
     36          6           0       -2.123283   -0.694710    0.839833
     37          6           0       -2.451771    0.778203    1.209072
     38          1           0       -1.655912    5.107209    1.129364
     39          1           0       -0.234059    4.242552    0.540305
     40          1           0       -1.724096    4.332220   -0.459732
     41          1           0       -7.688359   -2.593853   -0.390880
     42          1           0       -6.719920   -2.883976    1.063208
     43          1           0       -7.311648   -1.256453    0.692541
     44          1           0       -4.393360   -3.036302   -1.953690
     45          1           0       -4.825909   -3.930355   -0.481426
     46          1           0       -6.021275   -3.671045   -1.763133
     47          1           0       -5.886899   -1.191632   -1.349414
     48          1           0       -4.472215    3.077562   -1.321572
     49          1           0       -3.968798    2.167820   -2.735345
     50          1           0       -5.350667    1.600136   -1.772543
     51          1           0       -2.196315   -0.180182   -1.988569
     52          1           0       -3.922167   -0.434027   -2.156402
     53          1           0        0.311963   -2.160377   -0.681139
     54          1           0        6.052675   -2.245753    0.052575
     55          1           0        8.395891   -2.775966    0.592143
     56          1           0       10.151738   -1.034699    0.394215
     57          1           0        9.546867    1.252973   -0.352834
     58          1           0        7.203345    1.808224   -0.884176
     59          1           0        4.950147    0.862507   -1.628532
     60          1           0        4.089737   -0.870856    0.766248
     61          1           0       -2.803503   -2.157999   -0.662821
     62          1           0       -5.844393    0.463008    0.405269
     63          1           0       -5.119228    0.047267    1.950373
     64          1           0       -4.152785    2.119178    1.007020
     65          1           0        2.255571   -0.636081    2.194853
     66          1           0        2.025938   -2.059481    1.143988
     67          1           0       -0.021620   -2.170033    2.352262
     68          1           0       -0.058900   -0.414676    2.622906
     69          1           0        0.309487    1.649822    1.464278
     70          1           0        0.416985    2.250310   -0.169385
 ---------------------------------------------------------------------
 Rotational constants (GHZ):           0.3066164           0.0540558           0.0493751
 Standard basis: 6-31G(d) (6D, 7F)
 There are   569 symmetry adapted cartesian basis functions of A   symmetry.
 There are   569 symmetry adapted basis functions of A   symmetry.
   569 basis functions,  1072 primitive gaussians,   569 cartesian basis functions
   122 alpha electrons      122 beta electrons
       nuclear repulsion energy      3574.2006834181 Hartrees.
 NAtoms=   70 NActive=   70 NUniq=   70 SFac= 1.00D+00 NAtFMM=   60 NAOKFM=T Big=T
 Integral buffers will be    131072 words long.
 Raffenetti 2 integral format.
 Two-electron integral symmetry is turned on.
 Nuclear repulsion after empirical dispersion term =     3574.0378659593 Hartrees.
 Using the following non-standard input for PCM:
 radii=UA0
 --- end of non-standard input.
 ------------------------------------------------------------------------------
 United Atom Topological Model (UA0  parameters set).
  Nord Group  Hybr  Charge Alpha Radius          Bonded to
    1   CH3   *     0.00   1.10  2.525   O2   [s]
    2   O     *     0.00   1.10  1.750   C1   [s]  C32  [s]
    4   CH3   *     0.00   1.10  2.525   C6   [s]
    5   CH3   *     0.00   1.10  2.525   C6   [s]
    6   CH    *     0.00   1.10  2.125   C4   [s]  C5   [s]  C26  [s]
    7   CH3   *     0.00   1.10  2.525   C9   [s]
    8   CH2   *     0.00   1.10  2.325   C9   [s]  C25  [s]
    9   C     *     0.00   1.10  1.925   C7   [s]  C8   [s]  O24  [s]  C28  [s]
   12   OH    *     0.00   1.10  1.850   C35  [s]
   14   CH    *     0.00   1.10  2.125   C15  [s]  C20  [s]
   15   CH    *     0.00   1.10  2.125   C14  [s]  C16  [s]
   16   CH    *     0.00   1.10  2.125   C15  [s]  C17  [s]
   17   CH    *     0.00   1.10  2.125   C16  [s]  C18  [s]
   18   CH    *     0.00   1.10  2.125   C17  [s]  C20  [s]
   19   O     *     0.00   1.10  1.750   C23  [d]
   20   C     *     0.00   1.10  1.925   C14  [s]  C18  [s]  C21  [s]
   21   CH    *     0.00   1.10  2.125   C20  [s]  C22  [d]
   22   CH    *     0.00   1.10  2.125   C21  [d]  C23  [s]
   23   C     *     0.00   1.10  1.925   O19  [d]  C22  [s]  N29  [s]
   24   O     *     0.00   1.10  1.750   C9   [s]  C32  [s]
   25   CH    *     0.00   1.10  2.125   C8   [s]  C26  [s]  C36  [s]
   26   CH    *     0.00   1.10  2.125   C6   [s]  C25  [s]  C27  [s]
   27   CH2   *     0.00   1.10  2.325   C26  [s]  C28  [s]
   28   CH    *     0.00   1.10  2.125   C9   [s]  C27  [s]  C37  [s]
   29   N     *     0.00   1.10  1.830   C23  [s]  C30  [s]  C34  [s]
   30   CH2   *     0.00   1.10  2.325   N29  [s]  C31  [s]
   31   CH2   *     0.00   1.10  2.325   C30  [s]  C35  [s]
   32   C     *     0.00   1.10  1.925   O2   [s]  O24  [s]  C33  [s]  C37  [s]
   33   CH2   *     0.00   1.10  2.325   C32  [s]  C34  [s]
   34   CH    *     0.00   1.10  2.125   N29  [s]  C33  [s]  C35  [s]
   35   C     *     0.00   1.10  1.925   O12  [s]  C31  [s]  C34  [s]  C36  [s]
   36   CH    *     0.00   1.10  2.125   C25  [s]  C35  [s]  C37  [s]
   37   CH    *     0.00   1.10  2.125   C28  [s]  C32  [s]  C36  [s]
 ------------------------------------------------------------------------------
 Polarizable Continuum Model (PCM)
 =================================
 Model                : PCM.
 Atomic radii         : UA0 (Simple United Atom Topological Model).
 Polarization charges : Total charges.
 Charge compensation  : None.
 Solution method      : On-the-fly selection.
 Cavity type          : Scaled VdW (van der Waals Surface) (Alpha=1.100).
 Cavity algorithm     : GePol (No added spheres)
                        Default sphere list used, NSphG=   33.
                        Lebedev-Laikov grids with approx.  5.0 points / Ang**2.
                        Smoothing algorithm: York/Karplus (Gamma=1.0000).
                        Polarization charges: spherical gaussians, with
                                              point-specific exponents (IZeta= 3).
                        Self-potential: point-specific (ISelfS= 7).
                        Self-field    : sphere-specific E.n sum rule (ISelfD= 2).
 1st derivatives      : Analytical E(r).r(x)/FMM algorithm (CHGder, D1EAlg=3).
                        Cavity 1st derivative terms included.
 Solvent              : Methanol, Eps=  32.613000 Eps(inf)=   1.765709
 ------------------------------------------------------------------------------
 One-electron integrals computed using PRISM.
 NBasis=   569 RedAO= T EigKep=  4.62D-04  NBF=   569
 NBsUse=   569 1.00D-06 EigRej= -1.00D+00 NBFU=   569
 ExpMin= 1.61D-01 ExpMax= 5.48D+03 ExpMxC= 8.25D+02 IAcc=3 IRadAn=         5 AccDes= 0.00D+00
 Harris functional with IExCor=  402 and IRadAn=       5 diagonalized for initial guess.
 HarFok:  IExCor=  402 AccDes= 0.00D+00 IRadAn=         5 IDoV= 1 UseB2=F ITyADJ=14
 ICtDFT=  3500011 ScaDFX=  1.000000  1.000000  1.000000  1.000000
 FoFCou: FMM=F IPFlag=           0 FMFlag=      100000 FMFlg1=        2001
         NFxFlg=           0 DoJE=T BraDBF=F KetDBF=T FulRan=T
         wScrn=  0.000000 ICntrl=       500 IOpCl=  0 I1Cent=   200000004 NGrid=           0
         NMat0=    1 NMatS0=      1 NMatT0=    0 NMatD0=    1 NMtDS0=    0 NMtDT0=    0
 Petite list used in FoFCou.
 Requested convergence on RMS density matrix=1.00D-08 within 128 cycles.
 Requested convergence on MAX density matrix=1.00D-06.
 Requested convergence on             energy=1.00D-06.
 No special actions if energy rises.
 Inv3:  Mode=1 IEnd=    44814675.
 Iteration    1 A*A^-1 deviation from unit magnitude is 3.33D-15 for   1491.
 Iteration    1 A*A^-1 deviation from orthogonality  is 2.20D-15 for   1492    849.
 Iteration    1 A^-1*A deviation from unit magnitude is 4.11D-15 for   1491.
 Iteration    1 A^-1*A deviation from orthogonality  is 3.13D-15 for   1397   1263.
 Error on total polarization charges =  0.00793
 SCF Done:  E(RB3LYP) =  -1445.07598275     A.U. after   13 cycles
            NFock= 13  Conv=0.67D-08     -V/T= 2.0094

 **********************************************************************

            Population analysis using the SCF density.

 **********************************************************************

 Orbital symmetries:
       Occupied  (A) (A) (A) (A) (A) (A) (A) (A) (A) (A) (A) (A)
                 (A) (A) (A) (A) (A) (A) (A) (A) (A) (A) (A) (A)
                 (A) (A) (A) (A) (A) (A) (A) (A) (A) (A) (A) (A)
                 (A) (A) (A) (A) (A) (A) (A) (A) (A) (A) (A) (A)
                 (A) (A) (A) (A) (A) (A) (A) (A) (A) (A) (A) (A)
                 (A) (A) (A) (A) (A) (A) (A) (A) (A) (A) (A) (A)
                 (A) (A) (A) (A) (A) (A) (A) (A) (A) (A) (A) (A)
                 (A) (A) (A) (A) (A) (A) (A) (A) (A) (A) (A) (A)
                 (A) (A) (A) (A) (A) (A) (A) (A) (A) (A) (A) (A)
                 (A) (A) (A) (A) (A) (A) (A) (A) (A) (A) (A) (A)
                 (A) (A)
       Virtual   (A) (A) (A) (A) (A) (A) (A) (A) (A) (A) (A) (A)
                 (A) (A) (A) (A) (A) (A) (A) (A) (A) (A) (A) (A)
                 (A) (A) (A) (A) (A) (A) (A) (A) (A) (A) (A) (A)
                 (A) (A) (A) (A) (A) (A) (A) (A) (A) (A) (A) (A)
                 (A) (A) (A) (A) (A) (A) (A) (A) (A) (A) (A) (A)
                 (A) (A) (A) (A) (A) (A) (A) (A) (A) (A) (A) (A)
                 (A) (A) (A) (A) (A) (A) (A) (A) (A) (A) (A) (A)
                 (A) (A) (A) (A) (A) (A) (A) (A) (A) (A) (A) (A)
                 (A) (A) (A) (A) (A) (A) (A) (A) (A) (A) (A) (A)
                 (A) (A) (A) (A) (A) (A) (A) (A) (A) (A) (A) (A)
                 (A) (A) (A) (A) (A) (A) (A) (A) (A) (A) (A) (A)
                 (A) (A) (A) (A) (A) (A) (A) (A) (A) (A) (A) (A)
                 (A) (A) (A) (A) (A) (A) (A) (A) (A) (A) (A) (A)
                 (A) (A) (A) (A) (A) (A) (A) (A) (A) (A) (A) (A)
                 (A) (A) (A) (A) (A) (A) (A) (A) (A) (A) (A) (A)
                 (A) (A) (A) (A) (A) (A) (A) (A) (A) (A) (A) (A)
                 (A) (A) (A) (A) (A) (A) (A) (A) (A) (A) (A) (A)
                 (A) (A) (A) (A) (A) (A) (A) (A) (A) (A) (A) (A)
                 (A) (A) (A) (A) (A) (A) (A) (A) (A) (A) (A) (A)
                 (A) (A) (A) (A) (A) (A) (A) (A) (A) (A) (A) (A)
                 (A) (A) (A) (A) (A) (A) (A) (A) (A) (A) (A) (A)
                 (A) (A) (A) (A) (A) (A) (A) (A) (A) (A) (A) (A)
                 (A) (A) (A) (A) (A) (A) (A) (A) (A) (A) (A) (A)
                 (A) (A) (A) (A) (A) (A) (A) (A) (A) (A) (A) (A)
                 (A) (A) (A) (A) (A) (A) (A) (A) (A) (A) (A) (A)
                 (A) (A) (A) (A) (A) (A) (A) (A) (A) (A) (A) (A)
                 (A) (A) (A) (A) (A) (A) (A) (A) (A) (A) (A) (A)
                 (A) (A) (A) (A) (A) (A) (A) (A) (A) (A) (A) (A)
                 (A) (A) (A) (A) (A) (A) (A) (A) (A) (A) (A) (A)
                 (A) (A) (A) (A) (A) (A) (A) (A) (A) (A) (A) (A)
                 (A) (A) (A) (A) (A) (A) (A) (A) (A) (A) (A) (A)
                 (A) (A) (A) (A) (A) (A) (A) (A) (A) (A) (A) (A)
                 (A) (A) (A) (A) (A) (A) (A) (A) (A) (A) (A) (A)
                 (A) (A) (A) (A) (A) (A) (A) (A) (A) (A) (A) (A)
                 (A) (A) (A) (A) (A) (A) (A) (A) (A) (A) (A) (A)
                 (A) (A) (A) (A) (A) (A) (A) (A) (A) (A) (A) (A)
                 (A) (A) (A) (A) (A) (A) (A) (A) (A) (A) (A) (A)
                 (A) (A) (A)
 The electronic state is 1-A.
 Alpha  occ. eigenvalues --  -19.14509 -19.14503 -19.14380 -19.10999 -14.36053
 Alpha  occ. eigenvalues --  -10.28590 -10.28181 -10.24535 -10.23315 -10.22375
 Alpha  occ. eigenvalues --  -10.22264 -10.21881 -10.20445 -10.20160 -10.19286
 Alpha  occ. eigenvalues --  -10.19258 -10.19231 -10.19148 -10.19117 -10.19063
 Alpha  occ. eigenvalues --  -10.18999 -10.18761 -10.18638 -10.18224 -10.18189
 Alpha  occ. eigenvalues --  -10.18071 -10.17745 -10.17724 -10.17417 -10.17126
 Alpha  occ. eigenvalues --  -10.16930 -10.16701 -10.16624  -1.06099  -1.03401
 Alpha  occ. eigenvalues --   -1.02003  -1.00047  -0.94014  -0.86110  -0.85574
 Alpha  occ. eigenvalues --   -0.81568  -0.79907  -0.79255  -0.77915  -0.76148
 Alpha  occ. eigenvalues --   -0.75226  -0.74601  -0.73533  -0.72674  -0.71481
 Alpha  occ. eigenvalues --   -0.68376  -0.67533  -0.67457  -0.65378  -0.62254
 Alpha  occ. eigenvalues --   -0.62067  -0.60620  -0.60487  -0.59659  -0.58719
 Alpha  occ. eigenvalues --   -0.57093  -0.55483  -0.54311  -0.53395  -0.52104
 Alpha  occ. eigenvalues --   -0.51499  -0.51368  -0.50297  -0.49919  -0.48668
 Alpha  occ. eigenvalues --   -0.47593  -0.46900  -0.46139  -0.45729  -0.45318
 Alpha  occ. eigenvalues --   -0.44600  -0.44506  -0.43890  -0.43097  -0.42558
 Alpha  occ. eigenvalues --   -0.42155  -0.42082  -0.41972  -0.41705  -0.41541
 Alpha  occ. eigenvalues --   -0.41043  -0.40468  -0.39991  -0.39588  -0.39420
 Alpha  occ. eigenvalues --   -0.38797  -0.38713  -0.37865  -0.37647  -0.37573
 Alpha  occ. eigenvalues --   -0.36931  -0.36871  -0.36583  -0.35734  -0.35303
 Alpha  occ. eigenvalues --   -0.35242  -0.34588  -0.34419  -0.34224  -0.34174
 Alpha  occ. eigenvalues --   -0.33728  -0.32808  -0.32723  -0.32256  -0.31637
 Alpha  occ. eigenvalues --   -0.29849  -0.29135  -0.29029  -0.28263  -0.27626
 Alpha  occ. eigenvalues --   -0.26751  -0.26210  -0.25469  -0.25246  -0.24961
 Alpha  occ. eigenvalues --   -0.23775  -0.23169
 Alpha virt. eigenvalues --   -0.05173  -0.00425   0.01789   0.06430   0.08042
 Alpha virt. eigenvalues --    0.08516   0.08943   0.09418   0.10155   0.10611
 Alpha virt. eigenvalues --    0.10832   0.11531   0.12058   0.12225   0.12664
 Alpha virt. eigenvalues --    0.12960   0.13176   0.14035   0.14274   0.14851
 Alpha virt. eigenvalues --    0.15029   0.15170   0.15563   0.15716   0.15808
 Alpha virt. eigenvalues --    0.16010   0.16387   0.16646   0.16920   0.17075
 Alpha virt. eigenvalues --    0.17604   0.18175   0.18272   0.18503   0.18777
 Alpha virt. eigenvalues --    0.19060   0.19217   0.19508   0.19816   0.20219
 Alpha virt. eigenvalues --    0.20437   0.20874   0.21258   0.21478   0.21668
 Alpha virt. eigenvalues --    0.22516   0.23181   0.23448   0.23943   0.24298
 Alpha virt. eigenvalues --    0.24857   0.25255   0.25354   0.25966   0.26083
 Alpha virt. eigenvalues --    0.26508   0.27396   0.27720   0.27754   0.28233
 Alpha virt. eigenvalues --    0.29140   0.29905   0.30403   0.30731   0.30870
 Alpha virt. eigenvalues --    0.31128   0.31639   0.32469   0.32778   0.33683
 Alpha virt. eigenvalues --    0.35238   0.35987   0.36263   0.37587   0.38940
 Alpha virt. eigenvalues --    0.39269   0.41320   0.43291   0.47058   0.49784
 Alpha virt. eigenvalues --    0.50175   0.50586   0.51653   0.51771   0.52109
 Alpha virt. eigenvalues --    0.52922   0.53038   0.53909   0.54070   0.54451
 Alpha virt. eigenvalues --    0.55139   0.55194   0.55711   0.56593   0.56763
 Alpha virt. eigenvalues --    0.57208   0.57952   0.58164   0.58303   0.58893
 Alpha virt. eigenvalues --    0.59413   0.59495   0.60058   0.60387   0.60463
 Alpha virt. eigenvalues --    0.60881   0.61170   0.61372   0.62195   0.62338
 Alpha virt. eigenvalues --    0.62887   0.63060   0.63457   0.63789   0.64937
 Alpha virt. eigenvalues --    0.65911   0.66230   0.66379   0.66829   0.67091
 Alpha virt. eigenvalues --    0.67750   0.68776   0.69012   0.69726   0.70455
 Alpha virt. eigenvalues --    0.70874   0.71502   0.71957   0.73295   0.73583
 Alpha virt. eigenvalues --    0.74479   0.74864   0.76059   0.76778   0.77357
 Alpha virt. eigenvalues --    0.78170   0.78454   0.79599   0.80122   0.80666
 Alpha virt. eigenvalues --    0.81335   0.82080   0.82263   0.83174   0.83813
 Alpha virt. eigenvalues --    0.83897   0.84139   0.84197   0.84687   0.84847
 Alpha virt. eigenvalues --    0.85156   0.86037   0.86138   0.86447   0.86480
 Alpha virt. eigenvalues --    0.87503   0.87768   0.87884   0.88014   0.88803
 Alpha virt. eigenvalues --    0.89333   0.89493   0.89633   0.89903   0.90274
 Alpha virt. eigenvalues --    0.90604   0.90708   0.91517   0.91981   0.92186
 Alpha virt. eigenvalues --    0.92587   0.92887   0.93198   0.93890   0.94129
 Alpha virt. eigenvalues --    0.94398   0.95136   0.95643   0.95712   0.95973
 Alpha virt. eigenvalues --    0.96822   0.97315   0.97454   0.97948   0.98436
 Alpha virt. eigenvalues --    0.98952   0.99443   0.99720   1.00516   1.00879
 Alpha virt. eigenvalues --    1.01436   1.01969   1.02636   1.03266   1.04280
 Alpha virt. eigenvalues --    1.05078   1.05802   1.06924   1.08539   1.09255
 Alpha virt. eigenvalues --    1.09837   1.10795   1.11866   1.12333   1.12904
 Alpha virt. eigenvalues --    1.13538   1.14555   1.15608   1.16021   1.16804
 Alpha virt. eigenvalues --    1.18462   1.18930   1.19754   1.20605   1.23121
 Alpha virt. eigenvalues --    1.24208   1.25757   1.27327   1.27889   1.29048
 Alpha virt. eigenvalues --    1.30140   1.30355   1.32319   1.33131   1.34691
 Alpha virt. eigenvalues --    1.36305   1.36405   1.38990   1.39367   1.40266
 Alpha virt. eigenvalues --    1.41415   1.42717   1.43389   1.43578   1.44816
 Alpha virt. eigenvalues --    1.46172   1.47168   1.47847   1.48846   1.49134
 Alpha virt. eigenvalues --    1.49686   1.50607   1.51196   1.52910   1.54004
 Alpha virt. eigenvalues --    1.54725   1.55680   1.58103   1.59221   1.60770
 Alpha virt. eigenvalues --    1.61273   1.61852   1.62992   1.64655   1.65994
 Alpha virt. eigenvalues --    1.66427   1.67168   1.69531   1.70752   1.71864
 Alpha virt. eigenvalues --    1.73021   1.73813   1.74619   1.75699   1.76401
 Alpha virt. eigenvalues --    1.77308   1.77938   1.78812   1.79300   1.79979
 Alpha virt. eigenvalues --    1.80652   1.81079   1.81470   1.82262   1.82734
 Alpha virt. eigenvalues --    1.83151   1.83760   1.85391   1.86014   1.86084
 Alpha virt. eigenvalues --    1.87065   1.88377   1.89087   1.89189   1.90065
 Alpha virt. eigenvalues --    1.90731   1.90851   1.91696   1.92507   1.92971
 Alpha virt. eigenvalues --    1.93505   1.93829   1.94763   1.95749   1.96347
 Alpha virt. eigenvalues --    1.97439   1.97822   1.97976   1.99504   1.99840
 Alpha virt. eigenvalues --    2.00209   2.01402   2.02243   2.02583   2.02821
 Alpha virt. eigenvalues --    2.03558   2.04068   2.04316   2.04982   2.06305
 Alpha virt. eigenvalues --    2.07086   2.07618   2.08324   2.08807   2.10022
 Alpha virt. eigenvalues --    2.11056   2.11746   2.12085   2.12445   2.13770
 Alpha virt. eigenvalues --    2.13910   2.14758   2.14962   2.15354   2.15900
 Alpha virt. eigenvalues --    2.17288   2.18151   2.20100   2.20799   2.21540
 Alpha virt. eigenvalues --    2.21928   2.22043   2.23387   2.23573   2.24179
 Alpha virt. eigenvalues --    2.24959   2.26263   2.26570   2.27448   2.28271
 Alpha virt. eigenvalues --    2.29009   2.29701   2.30399   2.30434   2.31336
 Alpha virt. eigenvalues --    2.32394   2.33166   2.33700   2.35329   2.36083
 Alpha virt. eigenvalues --    2.37366   2.38885   2.40837   2.41189   2.42249
 Alpha virt. eigenvalues --    2.43469   2.44484   2.45934   2.46596   2.48164
 Alpha virt. eigenvalues --    2.49118   2.50509   2.51099   2.52439   2.53730
 Alpha virt. eigenvalues --    2.54744   2.56124   2.56372   2.56975   2.57806
 Alpha virt. eigenvalues --    2.58810   2.58999   2.59679   2.60949   2.61941
 Alpha virt. eigenvalues --    2.63274   2.64102   2.65636   2.65981   2.67911
 Alpha virt. eigenvalues --    2.68517   2.69630   2.71921   2.72740   2.73790
 Alpha virt. eigenvalues --    2.74135   2.74237   2.74674   2.75021   2.76453
 Alpha virt. eigenvalues --    2.78378   2.80886   2.82349   2.83256   2.85150
 Alpha virt. eigenvalues --    2.85469   2.86644   2.87346   2.89462   2.90103
 Alpha virt. eigenvalues --    2.92280   2.94018   2.95575   2.97181   2.98740
 Alpha virt. eigenvalues --    3.01229   3.06739   3.08979   3.11545   3.12692
 Alpha virt. eigenvalues --    3.17599   3.21699   3.24529   3.42022   3.96486
 Alpha virt. eigenvalues --    4.04736   4.08566   4.09264   4.11235   4.11965
 Alpha virt. eigenvalues --    4.14620   4.16040   4.18015   4.21198   4.25112
 Alpha virt. eigenvalues --    4.26893   4.29087   4.29832   4.31234   4.32692
 Alpha virt. eigenvalues --    4.35430   4.36176   4.42082   4.42284   4.46147
 Alpha virt. eigenvalues --    4.51642   4.52947   4.58101   4.66256   4.67499
 Alpha virt. eigenvalues --    4.70209   4.72552   4.78220   4.83604   4.85350
 Alpha virt. eigenvalues --    4.94786   5.05693
          Condensed to atoms (all electrons):
 Mulliken charges:
               1
     1  C   -0.218024
     2  O   -0.529264
     3  H    0.120748
     4  C   -0.452153
     5  C   -0.454606
     6  C   -0.087934
     7  C   -0.482180
     8  C   -0.309425
     9  C    0.345031
    10  H    0.144433
    11  H    0.149999
    12  O   -0.689548
    13  H    0.175189
    14  C   -0.185667
    15  C   -0.148429
    16  C   -0.139981
    17  C   -0.147871
    18  C   -0.193769
    19  O   -0.585273
    20  C    0.124841
    21  C   -0.158635
    22  C   -0.215812
    23  C    0.598840
    24  O   -0.575715
    25  C   -0.117808
    26  C   -0.073987
    27  C   -0.299244
    28  C   -0.126752
    29  N   -0.491302
    30  C   -0.140923
    31  C   -0.321795
    32  C    0.581749
    33  C   -0.314904
    34  C   -0.016373
    35  C    0.318153
    36  C   -0.146746
    37  C   -0.188299
    38  H    0.155069
    39  H    0.140948
    40  H    0.154505
    41  H    0.140841
    42  H    0.139352
    43  H    0.145995
    44  H    0.146718
    45  H    0.140502
    46  H    0.138702
    47  H    0.128254
    48  H    0.148135
    49  H    0.150012
    50  H    0.151646
    51  H    0.151838
    52  H    0.142708
    53  H    0.429963
    54  H    0.151779
    55  H    0.152979
    56  H    0.151594
    57  H    0.152823
    58  H    0.153716
    59  H    0.170889
    60  H    0.162820
    61  H    0.140684
    62  H    0.143363
    63  H    0.141501
    64  H    0.140474
    65  H    0.170663
    66  H    0.168206
    67  H    0.165234
    68  H    0.160051
    69  H    0.156409
    70  H    0.165059
 Sum of Mulliken charges =  -0.00000
 Mulliken charges with hydrogens summed into heavy atoms:
               1
     1  C    0.232498
     2  O   -0.529264
     4  C   -0.025964
     5  C   -0.028684
     6  C    0.040319
     7  C   -0.032386
     8  C   -0.014878
     9  C    0.345031
    12  O   -0.259584
    14  C   -0.033888
    15  C    0.004551
    16  C    0.011613
    17  C    0.004952
    18  C   -0.040054
    19  O   -0.585273
    20  C    0.124841
    21  C    0.012254
    22  C   -0.052992
    23  C    0.598840
    24  O   -0.575715
    25  C    0.022876
    26  C    0.046761
    27  C   -0.014380
    28  C    0.013722
    29  N   -0.491302
    30  C    0.197946
    31  C    0.003491
    32  C    0.581749
    33  C    0.006565
    34  C    0.158815
    35  C    0.318153
    36  C   -0.002314
    37  C   -0.038300
 Electronic spatial extent (au):  <R**2>=          21421.1593
 Charge=             -0.0000 electrons
 Dipole moment (field-independent basis, Debye):
    X=              0.9812    Y=             -2.4007    Z=              3.4934  Tot=              4.3509
 Quadrupole moment (field-independent basis, Debye-Ang):
   XX=           -168.1988   YY=           -194.4126   ZZ=           -199.7382
   XY=             -6.0057   XZ=              8.4003   YZ=             -1.5146
 Traceless Quadrupole moment (field-independent basis, Debye-Ang):
   XX=             19.2510   YY=             -6.9627   ZZ=            -12.2883
   XY=             -6.0057   XZ=              8.4003   YZ=             -1.5146
 Octapole moment (field-independent basis, Debye-Ang**2):
  XXX=            200.7464  YYY=             42.1977  ZZZ=             10.1859  XYY=             39.3644
  XXY=            -11.5500  XXZ=             16.9055  XZZ=            -32.4507  YZZ=            -10.9555
  YYZ=              2.7467  XYZ=             -8.5062
 Hexadecapole moment (field-independent basis, Debye-Ang**3):
 XXXX=         -21574.4429 YYYY=          -3451.7216 ZZZZ=          -1267.6613 XXXY=           -126.8007
 XXXZ=            242.9884 YYYX=           -135.4977 YYYZ=            -10.0376 ZZZX=             15.7041
 ZZZY=             -3.5876 XXYY=          -4458.0801 XXZZ=          -4460.0494 YYZZ=           -833.3569
 XXYZ=           -145.7737 YYXZ=             19.5073 ZZXY=             10.2443
 N-N= 3.574037865959D+03 E-N=-1.050715000041D+04  KE= 1.431621977867D+03
 D1PCM: PCM CHGder 1st derivatives, ID1Alg=3 FixD1E=F DoIter=F DoCFld=F I1PDM=0.
 Calling FoFJK, ICntrl=      2127 FMM=T ISym2X=0 I1Cent= 0 IOpClX= 0 NMat=1 NMatS=1 NMatT=0.
 ***** Axes restored to original set *****
 -------------------------------------------------------------------
 Center     Atomic                   Forces (Hartrees/Bohr)
 Number     Number              X              Y              Z
 -------------------------------------------------------------------
      1        6          -0.002173368    0.000557913   -0.002040213
      2        8           0.000833445    0.003391163    0.004196979
      3        1           0.002014350   -0.000170052    0.002009187
      4        6          -0.002762069   -0.002927920   -0.001849322
      5        6           0.000555139   -0.004789417    0.002185949
      6        6           0.004842972    0.003577777   -0.001384149
      7        6          -0.001955236   -0.007212893   -0.002132609
      8        6           0.004613038    0.011379614    0.002913773
      9        6          -0.009124693   -0.003833066    0.011289725
     10        1          -0.000274825   -0.002073239    0.000525313
     11        1           0.001305237   -0.005333876   -0.000014744
     12        8          -0.004079687   -0.003169624    0.003676252
     13        1          -0.001727730    0.001242070   -0.002198181
     14        6           0.006899976    0.003859170   -0.003045075
     15        6          -0.003302213    0.002037008    0.001080289
     16        6           0.003502348   -0.000717376   -0.001249790
     17        6          -0.004319357   -0.000842286   -0.000163103
     18        6           0.006573574   -0.006336962   -0.002243722
     19        8          -0.013026107   -0.008640017    0.007889821
     20        6          -0.002342807   -0.001895168    0.004854180
     21        6           0.005881136    0.002762002   -0.004567601
     22        6          -0.006673045   -0.001829404    0.005103404
     23        6           0.007501371    0.018298129   -0.007880958
     24        8           0.007423078   -0.000109720   -0.016301613
     25        6          -0.004367661    0.002401039   -0.001001859
     26        6           0.002180158    0.000879858    0.005298377
     27        6          -0.001590576    0.001048759   -0.003485334
     28        6           0.001130177    0.004122838    0.002129354
     29        7          -0.005731007   -0.012339804    0.009305295
     30        6           0.012456556   -0.002819724   -0.005492884
     31        6          -0.000192574   -0.002125864   -0.005655510
     32        6          -0.000115211   -0.000532224   -0.005696395
     33        6          -0.003657999   -0.011524345    0.001484084
     34        6           0.002799779   -0.003078396    0.001166694
     35        6           0.005316504    0.004273475   -0.001310103
     36        6          -0.000432450    0.008287930    0.010498152
     37        6          -0.006159354   -0.000045033   -0.006048347
     38        1           0.000123233    0.003814221   -0.000805850
     39        1           0.001849287   -0.003731916    0.001328257
     40        1           0.002202768   -0.000419468    0.002214034
     41        1           0.000356206    0.000083448    0.000445327
     42        1           0.001111159    0.000591535   -0.000458134
     43        1          -0.000466207    0.000497158   -0.001668629
     44        1           0.002272546    0.000162134   -0.000211435
     45        1           0.001060724    0.000665512   -0.000501144
     46        1          -0.000560392    0.000952083   -0.000366204
     47        1          -0.000633011   -0.002647490   -0.000870319
     48        1           0.000018496    0.001849178   -0.001527864
     49        1           0.001232288    0.001706704    0.001972099
     50        1           0.001282900    0.001044862    0.000172648
     51        1          -0.003952884   -0.002684252   -0.002692964
[...]
 62,-0.00016122,-0.00007985,0.00000332,0.00000305,-0.00000430,-0.000002
 65,-0.00000054,0.00001007,-0.00001379,0.00000455,0.00000549,0.00000219
 ,0.00001212,-0.00001266,0.00002926,-0.00000869,0.00004476,-0.00007058,
 0.00003396,0.00009870,-0.00008020,-0.00003551,-0.00007437,0.00016065,-
 0.00050896,-0.00001405,0.00020141,-0.00009962,0.00048105,0.00208958,0.
 00208023,-0.00831570,0.00015011,-0.00006967,0.00004504,0.00000054,0.00
 000223,-0.00000077,-0.00000094,0.00000212,-0.00000030,-0.00000136,0.00
 000009,0.00000061,-0.00000099,-0.00000081,0.00000025,-0.00000079,-0.00
 000290,0.00000181,0.00003424,0.00008762,-0.00003150,-0.00000311,0.0000
 0336,0.00000248,0.00000291,-0.00001938,-0.00000131,-0.00004078,-0.0000
 0516,-0.00003116,0.00005830,-0.00015315,0.00008024,-0.00023149,-0.0000
 4354,0.00025025,-0.00008848,-0.00019394,-0.00005436,0.00002335,0.00002
 275,0.00004027,-0.00001522,-0.00006490,0.00001202,0.00025204,-0.000084
 53,0.00014901,0.00018092,0.00058030,0.00006499,0.00449823,-0.00110840,
 0.00411689,-0.12111097,-0.00163988,-0.23376166,0.00055426,0.00029499,-
 0.00011127,-0.00017068,-0.00027289,-0.00063480,-0.00017165,-0.00004739
 ,-0.00005577,-0.01631084,-0.00352867,-0.01696744,-0.00092849,0.0002688
 5,0.00049218,0.00017196,0.00020919,-0.00020138,-0.00001875,-0.00001700
 ,-0.00001234,0.00000732,-0.00001375,0.00000437,0.00000025,-0.00001732,
 0.00000945,-0.00000269,0.00000638,0.00000345,0.00000088,0.00000204,-0.
 00000079,0.00000519,-0.00000322,0.00000011,-0.00000252,-0.00000141,0.0
 0000015,0.00000153,0.00000278,-0.00000039,0.00000196,0.00000344,0.0000
 0559,0.00000235,-0.00000077,-0.00000076,0.00000496,0.00000054,-0.00000
 459,-0.00001968,-0.00001818,0.00001159,-0.00001258,0.00000296,0.000007
 99,-0.00001459,-0.00004474,0.00001520,-0.00000627,-0.00003267,0.000034
 03,0.00062450,-0.00048837,0.00036481,0.00000087,0.00000039,-0.00000067
 ,-0.00000038,-0.00000026,0.00000007,-0.00000025,0.00000008,0.00000003,
 -0.00000045,0.00000036,-0.00000011,0.00000019,-0.00000004,-0.00000016,
 0.00000396,-0.00000096,0.00000157,-0.00000440,0.00002642,0.00001450,-0
 .00011548,0.00015183,0.00019705,-0.00001170,0.00003386,0.00002493,0.00
 001157,0.00001463,-0.00000239,-0.00002543,-0.00000856,0.00000554,0.000
 18238,0.00044900,0.00134384,0.00130641,-0.00076831,0.00071152,-0.00140
 329,-0.00029664,-0.00247227,0.13078017,0.00549931,0.25260627,-0.000298
 09,-0.00052911,-0.00002618,0.00200456,0.00036436,-0.00071726,0.0000011
 0,0.00002508,-0.00000255,0.00000442,-0.00000157,0.00000490,-0.00000705
 ,-0.00000023,0.00000364,0.00000422,-0.00001121,-0.00000651,-0.00029224
 ,0.00077763,0.00036363,-0.00017516,0.00006901,-0.00001122,-0.00052278,
 -0.00239613,-0.00050954,0.00009554,0.00001048,0.00003550,-0.00015652,0
 .00046732,-0.00010876,-0.00015270,-0.00029646,0.00017989,-0.00256308,-
 0.00193272,-0.00295316,-0.00000024,-0.00000692,0.00000276,0.00000250,-
 0.00000596,0.00000118,0.00000586,-0.00000051,-0.00000173,0.00000231,0.
 00000289,-0.00000266,0.00000398,0.00000766,-0.00000338,-0.00028842,-0.
 00018740,0.00027405,0.00001092,-0.00000194,0.00000277,-0.00003453,0.00
 002995,0.00001302,0.00002552,-0.00005271,-0.00005767,-0.00004370,0.000
 79329,-0.00022520,-0.00686275,0.00416145,0.00442604,-0.00000748,-0.000
 07097,0.00007290,-0.00000186,-0.00002483,-0.00002844,0.00006141,0.0000
 6783,-0.00017195,-0.00006685,-0.00024635,0.00015350,0.00254906,0.00034
 028,-0.00021052,-0.00034939,-0.00033656,-0.00012221,-0.00019127,-0.000
 87080,-0.00023430,-0.00780252,-0.01120234,0.02792998,-0.07672775,-0.02
 251704,0.07706716,0.00476106,0.00664643,-0.02128831,0.00038556,0.00047
 739,0.00043163,-0.00024027,-0.00000280,-0.00007402,0.00106446,-0.00032
 551,-0.00062601,0.00003742,0.00001661,-0.00004025,-0.00015495,-0.00006
 925,0.00006008,0.00016369,0.00023937,-0.00000611,-0.00000259,0.0000059
 2,0.00000448,-0.00000021,0.00000510,-0.00000120,0.00000384,-0.00000311
 ,-0.00000093,-0.00000442,-0.00000195,-0.00000709,0.00000208,0.00000305
 ,-0.00000005,0.00000045,0.00000559,0.00000676,0.00001377,0.00000378,-0
 .00001092,0.00003522,-0.00000597,-0.00002852,0.00004378,-0.00002158,-0
 .00001492,-0.00028597,-0.00008744,0.00016650,-0.00001497,-0.00004577,-
 0.00001457,0.00005799,0.00006832,0.00008823,0.00018941,0.00010512,0.00
 002178,-0.00000117,-0.00000072,0.00000021,0.00000125,0.00000051,-0.000
 00062,0.00000056,-0.00000022,-0.00000019,0.00000103,-0.00000113,-0.000
 00003,-0.00000060,0.00000039,0.00000019,0.00000151,-0.00000283,-0.0000
 0345,-0.00000653,0.00000122,0.00000592,0.00001195,0.00005677,-0.000002
 76,0.00001237,-0.00004099,0.00000126,-0.00001221,0.00008030,0.00001742
 ,-0.00000934,0.00002352,-0.00000015,-0.00022881,-0.00010725,0.00001068
 ,0.00004158,0.00000861,0.00003734,-0.00006996,0.00003845,-0.00001809,-
 0.00012024,-0.00053378,-0.00019374,0.08652423,-0.00012711,0.00016422,0
 .00015843,-0.00111809,0.00000783,-0.00018176,0.00000435,-0.00000525,-0
 .00000005,-0.00000278,-0.00000070,0.00000416,-0.00000202,-0.00000005,0
 .00000185,0.00000218,0.00000566,-0.00000819,0.00008673,-0.00020491,-0.
 00012675,0.00000408,0.00000214,-0.00001695,0.00023363,0.00065927,-0.00
 018480,0.00000880,-0.00001225,0.00001087,0.00013301,-0.00015385,0.0000
 0781,-0.00014471,-0.00017892,0.00028482,-0.00105094,-0.00017250,-0.001
 30559,0.00000068,-0.00000362,-0.00000023,0.00000108,-0.00000240,-0.000
 00013,0.00000272,-0.00000056,-0.00000098,0.00000123,0.00000130,-0.0000
 0190,0.00000060,0.00000322,-0.00000166,0.00036321,-0.00003683,0.000095
 78,0.00000547,0.00000393,0.00000327,-0.00002230,0.00000761,-0.00000263
 ,0.00002219,-0.00000377,-0.00005897,-0.00014259,-0.00003464,0.00028258
 ,0.00276976,0.00035663,-0.00093778,0.00000730,0.00003229,-0.00003978,-
 0.00001266,-0.00000981,0.00001323,-0.00005664,-0.00003365,0.00002774,-
 0.00010094,0.00025953,0.00009392,0.00099020,0.00028638,0.00048785,-0.0
 0013806,0.00022204,0.00008018,-0.00078783,-0.00093881,-0.00058931,0.00
 385130,0.00273670,-0.01147453,-0.02443438,-0.07133971,0.06610634,0.004
 40470,0.00303060,-0.01107037,0.00043504,0.00047537,-0.00035444,-0.0000
 2640,-0.00012051,-0.00002896,-0.00043570,0.00026948,0.00013413,0.00002
 939,0.00000572,-0.00006832,0.00005960,-0.00018891,-0.00002237,0.000125
 36,-0.00006731,-0.00008053,-0.00000052,0.00000189,0.00000083,0.0000007
 5,-0.00000027,0.00000006,0.00000155,-0.00000100,0.00000007,0.00000064,
 0.00000087,0.00000004,0.00000007,-0.00000069,-0.00000034,0.00000016,0.
 00000066,0.00000116,-0.00000360,-0.00000108,0.00000274,-0.00001851,-0.
 00000708,0.00000792,-0.00001513,-0.00000369,0.00000332,0.00007970,0.00
 001658,-0.00005303,0.00000511,-0.00001515,0.00003464,-0.00000192,-0.00
 002065,-0.00000871,0.00006735,0.00002616,-0.00000754,-0.00000036,-0.00
 000004,0.00000119,0.00000078,0.00000028,-0.00000007,0.00000030,-0.0000
 0003,0.00000014,0.00000047,-0.00000042,0.00000016,-0.00000026,0.000000
 42,0.00000070,-0.00000332,0.00000392,-0.00000008,0.00000040,0.00000174
 ,0.00000369,-0.00000548,-0.00000954,0.00001574,-0.00001429,0.00002786,
 0.00001499,0.00000141,-0.00000498,-0.00000462,-0.00001637,-0.00001652,
 -0.00000584,-0.00002770,-0.00002164,-0.00001119,0.00006348,-0.00006692
 ,0.00002670,0.00003512,0.00005079,0.00001157,-0.00063376,-0.00126991,-
 0.00005361,0.02727188,0.07365005,0.00015553,0.00033320,0.00022297,-0.0
 0136176,-0.00038584,0.00126953,0.00000525,-0.00001300,0.00000213,-0.00
 000262,0.00000101,-0.00000289,0.00000266,0.00000234,-0.00000170,0.0000
 0129,0.00000535,0.00000418,0.00010377,-0.00023484,-0.00007146,0.000009
 59,0.00004065,-0.00003285,-0.00017334,0.00078621,0.00047817,0.00007399
 ,-0.00008338,-0.00002909,0.00010958,-0.00029201,0.00016686,-0.00039570
 ,-0.00073262,0.00026846,-0.00276708,-0.00231890,-0.00174539,-0.0000028
 0,-0.00000217,0.00000237,0.00000187,-0.00000353,0.00000045,0.00000156,
 0.00000027,-0.00000033,0.00000175,0.00000111,-0.00000158,-0.00000048,0
 .00000555,-0.00000083,-0.00028642,-0.00032494,0.00023967,0.00001300,0.
 00000106,0.00000226,-0.00005950,0.00001810,0.00001379,0.00002316,0.000
 00779,-0.00006856,-0.00031563,0.00090971,-0.00015102,0.00129992,-0.001
 13141,0.00014317,0.00000741,0.00006942,-0.00001975,-0.00000811,0.00000
 734,0.00000921,-0.00002165,-0.00000829,0.00005457,0.00014585,-0.000062
 41,-0.00007572,0.00215887,-0.00015382,0.00241191,-0.00092067,-0.000075
 42,-0.00023896,-0.00022235,0.00062338,-0.00071319,0.00016758,0.0016493
 0,-0.00553710,0.07826829,0.06444317,-0.26092989,0.00684667,0.00674749,
 -0.02250412,0.00029598,0.00131241,-0.00064003,-0.00012164,-0.00022880,
 -0.00000530,-0.00009368,0.00019399,0.00015271,0.00001109,-0.00000455,-
 0.00000335,0.00016649,0.00009853,-0.00011270,-0.00004322,-0.00003957,0
 .00002222,0.00000167,-0.00000291,-0.00000197,0.00000017,-0.00000260,0.
 00000068,-0.00000081,0.00000117,0.00000094,0.00000227,0.00000034,0.000
 00446,-0.00000116,-0.00000155,0.00000021,0.00000019,-0.00000302,-0.000
 00298,-0.00000723,-0.00000220,0.00000437,-0.00001317,0.00000589,0.0000
 0467,-0.00002050,0.00000349,0.00001211,0.00006311,0.00002958,-0.000043
 46,-0.00000358,-0.00002633,0.00010753,0.00001579,-0.00004630,-0.000017
 70,0.00024211,0.00009205,-0.00000761,-0.00000116,-0.00000099,-0.000000
 05,0.00000021,0.00000015,-0.00000033,0.00000021,-0.00000018,-0.0000001
 4,0.00000035,-0.00000050,-0.00000014,-0.00000029,0.00000007,-0.0000001
 3,0.00000266,-0.00000642,-0.00000366,-0.00002414,-0.00000289,0.0000072
 2,-0.00001691,-0.00000596,0.00002778,-0.00000093,0.00001213,-0.0000015
 5,0.00000704,-0.00002585,-0.00000449,-0.00000819,-0.00000950,0.0000072
 2,-0.00026887,-0.00010666,0.00010145,0.00001770,-0.00014446,0.00008429
 ,0.00022207,-0.00000863,0.00052034,0.00044098,-0.00021839,0.00113078,-
 0.08356481,-0.07117884,0.28556347,-0.00090966,-0.00019762,-0.00088513,
 0.00179703,-0.00207959,0.00048397,0.00002186,0.00001250,0.00000756,-0.
 00000985,-0.00000304,-0.00000117,-0.00001527,0.00000756,0.00001428,0.0
 0004169,-0.00000353,-0.00000794,0.00010652,-0.00017651,0.00001035,0.00
 005365,-0.00003960,-0.00008202,0.00005222,0.00041964,-0.00012682,0.000
 14520,-0.00001553,0.00007151,-0.00001207,0.00016581,-0.00008011,-0.000
 61041,-0.00173413,-0.00115868,0.00085336,0.00075478,0.00052733,0.00001
 237,-0.00002319,0.00000374,0.00000524,-0.00001310,0.00000607,0.0000189
 4,-0.00000472,-0.00000443,0.00000864,0.00000825,-0.00000691,0.00001432
 ,0.00002245,-0.00001038,0.00108133,0.00134275,-0.00023959,0.00000977,0
 .00000088,-0.00000702,-0.00000979,0.00013180,-0.00001099,0.00012604,-0
 .00006582,-0.00018600,-0.00147646,-0.00180932,0.00064283,0.00212101,-0
 .00147779,-0.00208688,0.00010397,-0.00000689,0.00001192,-0.00005742,-0
 .00004661,-0.00009939,-0.00062523,-0.00035868,0.00029800,0.00029525,0.
 00198912,0.00009035,0.00123671,0.00125067,0.00064109,0.00023037,-0.000
 25163,0.00029050,0.00032685,-0.00017273,0.00028430,0.00193590,0.036342
 15,-0.00031241,-0.04948908,-0.00256657,0.00282540,-0.00105666,-0.02372
 674,-0.00006269,-0.00227409,0.00159541,-0.00244955,-0.00029825,-0.0002
 2934,-0.00028775,-0.00552191,-0.00070990,0.00111995,0.00007769,-0.0001
 6851,0.00002650,-0.00133212,-0.00064679,-0.00110162,-0.00015062,-0.000
 07282,0.00013330,0.00000297,0.00000629,0.00000843,0.00000436,0.0000037
 4,0.00000196,0.00001751,-0.00001054,0.00000398,0.00000242,-0.00000082,
 0.00000089,0.00000210,0.00000099,-0.00000030,0.00000466,0.00000371,0.0
 0000907,-0.00000308,0.00000170,-0.00000349,-0.00001326,0.00000778,-0.0
 0000235,-0.00003659,-0.00002405,0.00002620,0.00005043,0.00002138,-0.00
 004240,0.00001399,-0.00002087,0.00004950,-0.00000426,-0.00002228,-0.00
 001234,0.00034647,-0.00001201,0.00011234,-0.00000568,-0.00000446,0.000
 00049,0.00000470,0.00000147,-0.00000220,0.00000171,-0.00000111,-0.0000
 0120,0.00000365,-0.00000369,-0.00000034,-0.00000281,0.00000188,-0.0000
 0006,-0.00003024,0.00003118,0.00000011,0.00007208,-0.00000627,-0.00002
 682,-0.00004101,0.00001903,0.00009180,-0.00009311,0.00025885,0.0001457
 0,0.00002123,-0.00001894,-0.00002976,-0.00002583,-0.00004907,-0.000040
 58,0.00003067,0.00004813,-0.00007401,0.00004314,0.00012873,-0.00008038
 ,-0.00007843,0.00001215,-0.00008557,-0.00026580,-0.00000979,-0.0001451
 6,-0.00042801,-0.01172743,-0.00015924,0.05357902,-0.00018237,-0.001156
 58,-0.00130134,0.00027869,0.00065242,0.00003822,-0.00001028,-0.0000006
 6,-0.00000510,0.00000611,0.00000526,-0.00001872,0.00001397,0.00000076,
 -0.00001096,-0.00000761,-0.00001331,0.00003324,-0.00006192,0.00006404,
 -0.00000864,-0.00003802,0.00000931,0.00002531,0.00027428,-0.00028433,-
 0.00018807,-0.00000454,-0.00005815,-0.00001217,-0.00000358,-0.00008933
 ,0.00005375,-0.00043247,-0.00082160,-0.00057895,0.00017366,0.00076835,
 0.00014834,0.00000375,-0.00000223,-0.00000056,0.00000001,0.00000033,0.
 00000064,0.00000100,-0.00000052,-0.00000014,0.00000004,0.00000030,-0.0
 0000088,0.00000049,0.00000006,-0.00000045,0.00147990,0.00027112,0.0005
 0176,-0.00000282,0.00000674,0.00000485,0.00001151,0.00001168,-0.000007
 12,-0.00000476,-0.00000284,-0.00011039,-0.00071268,-0.00090041,0.00037
 727,-0.00075182,0.00162478,0.00070163,-0.00004713,-0.00004012,0.000106
 45,0.00003465,0.00005373,-0.00001898,0.00022470,0.00019916,-0.00018579
 ,-0.00041372,-0.00059222,0.00011003,-0.00020446,0.00084667,0.00005745,
 0.00011691,-0.00012268,0.00008985,0.00027069,0.00003580,0.00015997,0.0
 0035509,-0.01335832,0.00021017,-0.00250948,-0.31550775,0.01200223,-0.0
 0099255,-0.01210565,-0.00107556,-0.00089252,0.00214516,-0.00096663,-0.
 00006304,0.00037707,0.00025586,0.00199129,0.00149875,-0.00033489,-0.00
 038941,0.00049214,0.00006485,-0.00150793,0.00055040,0.00008496,0.00012
 188,0.00002324,0.00001443,0.00000472,-0.00001226,-0.00000645,-0.000003
 08,-0.00000290,0.00000031,-0.00000800,0.00000633,0.00000045,0.00000013
 ,-0.00000228,0.00000722,-0.00000228,0.00000094,0.00000156,-0.00000055,
 -0.00000773,-0.00000997,0.00000270,-0.00000015,-0.00000235,0.00001444,
 -0.00000346,0.00000338,0.00001934,0.00001506,-0.00001868,-0.00001226,-
 0.00001041,0.00001484,-0.00000655,-0.00001457,-0.00000389,0.00002897,0
 .00002553,-0.00000417,0.00020261,0.00000332,0.00007700,-0.00000058,-0.
 00000064,-0.00000038,0.00000040,-0.00000001,-0.00000028,0.00000011,-0.
 00000011,-0.00000012,0.00000011,-0.00000017,-0.00000011,-0.00000020,0.
 00000046,-0.00000005,-0.00001031,0.00001054,0.00000501,0.00002963,0.00
 000862,-0.00000488,-0.00000410,0.00001797,-0.00002662,0.00003714,-0.00
 012213,-0.00006188,-0.00001487,0.00002097,0.00002421,0.00006801,0.0000
 1430,-0.00000831,0.00000552,0.00004183,-0.00001746,-0.00000201,0.00006
 613,-0.00002438,-0.00004340,0.00000781,-0.00002481,-0.00011894,-0.0000
 1123,-0.00011037,-0.00023348,-0.00736259,0.00048738,0.00392127,0.34273
 025,-0.00097864,0.00053633,0.00022984,-0.00036563,-0.00025140,-0.00019
 752,-0.00000412,0.00000528,-0.00000009,0.00000349,0.00000186,-0.000015
 59,0.00000621,0.00000221,-0.00000460,0.00000669,-0.00001348,0.00002386
 ,-0.00000800,0.00005795,0.00002707,-0.00003575,-0.00001909,0.00002573,
 -0.00010087,-0.00005647,-0.00012481,0.00007153,-0.00007496,0.00001169,
 0.00015015,-0.00027917,-0.00000229,-0.00086531,-0.00192406,-0.00114907
 ,0.00058318,-0.00022345,0.00105013,0.00000638,-0.00001354,0.,0.0000038
 9,-0.00000761,0.00000317,0.00001028,-0.00000221,-0.00000270,0.00000443
 ,0.00000440,-0.00000513,0.00000639,0.00001266,-0.00000523,0.00089964,0
 .00078802,-0.00046801,0.00000945,0.00000819,0.00000174,-0.00002750,0.0
 0007176,-0.00000908,0.00010708,0.00002445,-0.00019571,-0.00064179,-0.0
 0120165,0.00072869,-0.00062513,-0.00032961,0.00046913,0.00000336,-0.00
 004155,0.00008736,0.00002587,0.00003126,-0.00004210,0.00005286,0.00003
 692,-0.00005184,0.00008882,-0.00026133,0.00009834,0.00092805,0.0014424
 6,0.00031388,0.00000544,-0.00005812,0.00010819,0.00015867,0.00025433,-
 0.00042889,0.00049265,-0.00510994,-0.00093896,0.00219115,0.01419350,-0
 .04799874,-0.00175182,-0.02815402,-0.00179511,-0.00286190,0.00149287,-
 0.00259239,-0.00016588,0.00031729,0.00002233,0.00063118,-0.00008357,0.
 00033252,0.00018548,-0.00006838,-0.00009691,-0.00072221,-0.00049100,-0
 .00064974,0.00015655,-0.00000561,0.00000160,0.00000376,-0.00000744,-0.
 00000257,-0.00000123,-0.00000077,0.00000064,-0.00000208,0.00000173,0.0
 0000062,-0.00000008,-0.00000202,0.00000478,-0.00000095,0.00000124,0.00
 000102,0.00000054,-0.00000418,-0.00000444,0.00000329,0.00000088,-0.000
 00440,0.00000238,0.00000092,-0.00000242,0.00000661,0.00000042,-0.00000
 889,-0.00002601,-0.00000487,0.00001246,-0.00000714,-0.00000769,0.00000
 655,0.00002230,0.00001954,0.00000380,0.00034626,0.00001222,0.00012842,
 -0.00000338,-0.00000267,0.00000083,0.00000264,0.00000086,-0.00000101,0
 .00000095,-0.00000053,-0.00000051,0.00000189,-0.00000191,0.00000008,-0
 .00000117,0.00000118,0.00000093,-0.00001929,0.00002001,0.00000273,0.00
 004595,-0.00000511,-0.00001921,-0.00001989,0.00002679,0.00001818,0.000
 02153,-0.00002732,-0.00001672,0.00000184,0.00001291,0.00001513,-0.0000
 0447,0.00002267,-0.00000830,-0.00005574,0.00004484,-0.00000110,0.00002
 003,0.00005833,-0.00000451,0.00001978,-0.00006458,0.00024863,0.0001265
 6,-0.00015707,0.00044907,-0.00009344,0.02996221,-0.00007212,0.00197427
 ,-0.01051209,0.05249156\\0.00000422,-0.00000429,0.00000672,-0.00000005
 ,0.00000104,0.00000496,-0.00000162,-0.00000033,-0.00000171,0.00000098,
 0.00000242,-0.00000350,0.00000054,0.00000431,-0.00000416,0.00000010,-0
 .00000203,-0.00000120,0.00000263,0.00000534,0.00000558,-0.00000392,0.0
 0000029,-0.00000189,0.00000605,-0.00000011,-0.00001028,0.00000005,-0.0
 0000011,-0.00000057,-0.00000242,-0.00000012,-0.00000067,-0.00000140,-0
 .00000062,-0.00000373,0.00000079,-0.00000048,0.00000123,0.00000519,-0.
 00000294,-0.00000112,-0.00000269,0.00000405,-0.00000003,0.00000037,-0.
 00000095,0.00000258,0.00000012,-0.00000239,0.00000064,0.00000235,-0.00
 000004,0.00000365,-0.00000880,-0.00000887,0.00000992,-0.00001430,0.000
 00388,-0.00000060,0.00001449,-0.00000237,0.00000465,-0.00000512,0.0000
 0216,0.00000099,0.00001039,0.00001558,-0.00000993,-0.00000638,-0.00000
 094,0.00000769,0.00000658,-0.00000327,0.00000217,0.00000081,0.00000406
 ,-0.00000139,-0.00000569,-0.00000334,-0.00000251,-0.00000557,-0.000006
 42,0.00000710,-0.00000368,-0.00001220,0.00000023,0.00000057,0.00000665
 ,-0.00000390,-0.00000078,-0.00000678,0.00000064,0.00000019,0.00000419,
 -0.00001033,0.00000255,0.00000559,0.00000064,0.00000253,0.00000254,0.0
 0000126,-0.00000084,0.00000335,0.00000310,-0.00000379,-0.00000654,-0.0
 0000922,0.00000752,-0.00000263,0.00000457,-0.00000100,-0.00000261,0.00
 000198,-0.00000090,-0.00000101,0.00000203,-0.00000137,-0.00000058,0.00
 000243,-0.00000053,0.00000132,-0.00000211,-0.00000071,0.00000014,-0.00
 000302,-0.00000125,0.00000064,-0.00000145,0.00000045,0.00000176,-0.000
 00067,-0.00000031,0.00000177,-0.00000226,0.00000056,0.00000225,-0.0000
 0146,0.00000085,0.00000273,-0.00000087,-0.00000079,-0.00000266,0.00000
 163,-0.00000008,-0.00000067,0.00000183,-0.00000045,-0.00000033,0.00000
 012,0.00000079,0.00000133,0.00000094,0.00000177,0.00000163,0.00000213,
 0.00000078,0.00000240,0.00000041,-0.00000056,0.00000108,0.00000027,0.0
 0000052,-0.00000107,-0.00000065,0.00000047,0.00000008,0.,0.00000196,0.
 00000167,0.00000307,0.00000072,0.00000051,0.00000208,-0.00000090,0.000
 00044,0.00000025,0.00000021,0.00000084,-0.00000126,-0.00000211,0.00000
 309,-0.00000028,0.00000051,0.00000038,-0.00000179,0.00000130,-0.000000
 21,-0.00000152,-0.00000063,-0.00000076,-0.00000030,0.00000086,-0.00000
 190,-0.00000062,-0.00000028,-0.00000029,0.00000010,0.00000132,-0.00000
 057,-0.00000439,-0.00000107,-0.00000104,-0.00000185,-0.00000039,-0.000
 00492,0.00000130,-0.00000170,-0.00000316,0.00000231\\\@


 "PERFECTION IS NOT AN ACCIDENT"
         --  EAGLE ELECTRIC MANUFACTURING CO.,INC. NY
 Job cpu time:       0 days 22 hours  5 minutes 56.8 seconds.
 Elapsed time:       0 days  1 hours  6 minutes 31.8 seconds.
 File lengths (MBytes):  RWF=   2657 Int=      0 D2E=      0 Chk=     42 Scr=      1
 Normal termination of Gaussian 16 at Sat Jun 19 20:28:45 2021.
