 Entering Gaussian System, Link 0=g16
 Input=Revised-SAH-42C-3-energy-conf-1.com
 Output=Revised-SAH-42C-3-energy-conf-1.log
 Initial command:
 /home/admin/g16/l1.exe "/home/admin/tmp/Gau-329811.inp" -scrdir="/home/admin/tmp/"
 Entering Link 1 = /home/admin/g16/l1.exe PID=    329824.
  
 Copyright (c) 1988,1990,1992,1993,1995,1998,2003,2009,2016,
            Gaussian, Inc.  All Rights Reserved.
  
 This is part of the Gaussian(R) 16 program.  It is based on
 the Gaussian(R) 09 system (copyright 2009, Gaussian, Inc.),
 the Gaussian(R) 03 system (copyright 2003, Gaussian, Inc.),
 the Gaussian(R) 98 system (copyright 1998, Gaussian, Inc.),
 the Gaussian(R) 94 system (copyright 1995, Gaussian, Inc.),
 the Gaussian 92(TM) system (copyright 1992, Gaussian, Inc.),
 the Gaussian 90(TM) system (copyright 1990, Gaussian, Inc.),
 the Gaussian 88(TM) system (copyright 1988, Gaussian, Inc.),
 the Gaussian 86(TM) system (copyright 1986, Carnegie Mellon
 University), and the Gaussian 82(TM) system (copyright 1983,
 Carnegie Mellon University). Gaussian is a federally registered
 trademark of Gaussian, Inc.
  
 This software contains proprietary and confidential information,
 including trade secrets, belonging to Gaussian, Inc.
  
 This software is provided under written license and may be
 used, copied, transmitted, or stored only in accord with that
 written license.
  
 The following legend is applicable only to US Government
 contracts under FAR:
  
                    RESTRICTED RIGHTS LEGEND
  
 Use, reproduction and disclosure by the US Government is
 subject to restrictions as set forth in subparagraphs (a)
 and (c) of the Commercial Computer Software - Restricted
 Rights clause in FAR 52.227-19.
  
 Gaussian, Inc.
 340 Quinnipiac St., Bldg. 40, Wallingford CT 06492
  
  
 ---------------------------------------------------------------
 Warning -- This program may not be used in any manner that
 competes with the business of Gaussian, Inc. or will provide
 assistance to any competitor of Gaussian, Inc.  The licensee
 of this program is prohibited from giving any competitor of
 Gaussian, Inc. access to this program.  By using this program,
 the user acknowledges that Gaussian, Inc. is engaged in the
 business of creating and licensing software in the field of
 computational chemistry and represents and warrants to the
 licensee that it is not a competitor of Gaussian, Inc. and that
 it will not use this program in any manner prohibited above.
 ---------------------------------------------------------------
  

 Cite this work as:
 Gaussian 16, Revision A.03,
 M. J. Frisch, G. W. Trucks, H. B. Schlegel, G. E. Scuseria, 
 M. A. Robb, J. R. Cheeseman, G. Scalmani, V. Barone, 
 G. A. Petersson, H. Nakatsuji, X. Li, M. Caricato, A. V. Marenich, 
 J. Bloino, B. G. Janesko, R. Gomperts, B. Mennucci, H. P. Hratchian, 
 J. V. Ortiz, A. F. Izmaylov, J. L. Sonnenberg, D. Williams-Young, 
 F. Ding, F. Lipparini, F. Egidi, J. Goings, B. Peng, A. Petrone, 
 T. Henderson, D. Ranasinghe, V. G. Zakrzewski, J. Gao, N. Rega, 
 G. Zheng, W. Liang, M. Hada, M. Ehara, K. Toyota, R. Fukuda, 
 J. Hasegawa, M. Ishida, T. Nakajima, Y. Honda, O. Kitao, H. Nakai, 
 T. Vreven, K. Throssell, J. A. Montgomery, Jr., J. E. Peralta, 
 F. Ogliaro, M. J. Bearpark, J. J. Heyd, E. N. Brothers, K. N. Kudin, 
 V. N. Staroverov, T. A. Keith, R. Kobayashi, J. Normand, 
 K. Raghavachari, A. P. Rendell, J. C. Burant, S. S. Iyengar, 
 J. Tomasi, M. Cossi, J. M. Millam, M. Klene, C. Adamo, R. Cammi, 
 J. W. Ochterski, R. L. Martin, K. Morokuma, O. Farkas, 
 J. B. Foresman, and D. J. Fox, Gaussian, Inc., Wallingford CT, 2016.
 
 ******************************************
 Gaussian 16:  ES64L-G16RevA.03 25-Dec-2016
                23-Jun-2021 
 ******************************************
 %mem=20gb
 %nproc=10
 Will use up to   10 processors via shared memory.
 %chk=Revised-SAH-42C-3-conf-1.chk
 ----------------------------------------------------------------------
 # td=(nstates=10,root=1) b3lyp/6-311g(d,p) guess=read geom=check integ
 ral(ultrafinegrid) scrf=(iefpcm,read,solvent=methanol)
 ----------------------------------------------------------------------
 1/29=2,38=1,40=2,172=1/1;
 2/12=2,40=1/2;
 3/5=4,6=6,7=101,11=9,14=-4,25=1,30=1,70=2203,72=3,74=-5,75=-5,116=-2/1,2,3,8;
 4/5=1/1;
 5/5=2,38=6,53=3/2;
 8/6=1,10=2,107=1,108=10/1;
 9/8=1,41=10,42=1,70=2/14;
 6/7=2,8=2,9=2,10=2/1;
 99/5=1,9=1/99;
 ----------------------------------------------------------------------
 Candidate Structure: Revised-SAH-42C-3, Conformer: 1, energy calculati
 on with methanol solvation
 ----------------------------------------------------------------------
 Structure from the checkpoint file:  "Revised-SAH-42C-3-conf-1.chk"
 Charge =  0 Multiplicity = 1
 Redundant internal coordinates found in file.  (old form).
 C,0,2.4319349472,5.5616751026,-4.7192076637
 O,0,2.1414440375,6.9443378637,-4.5633490556
 H,0,1.5895683055,11.6225210816,-1.5170764244
 C,0,0.0294810862,11.681578611,0.6354367571
 C,0,2.4823470507,11.7912539173,1.1678208515
 C,0,1.3793932721,10.9613577,0.498901906
 C,0,1.6797728518,6.6501259615,-0.6253360618
 C,0,3.2139497807,8.7025970902,-0.6877509182
 C,0,2.3251239871,7.7195750757,-1.4869788767
 H,0,2.859591002,11.0757194379,-3.1642110251
 H,0,1.8459309329,9.3636557884,-4.3520692992
 O,0,5.5126918263,10.7881077789,-2.364587207
 H,0,5.6393511136,8.252436875,-2.6401696038
 C,0,10.2760329824,4.2719620866,-3.781841816
 C,0,10.5973903012,3.0516123818,-3.1903069303
 C,0,9.7559745461,2.5042144954,-2.220568829
 C,0,8.591796203,3.1855458636,-1.8476221469
 C,0,8.271267698,4.4034704726,-2.4374672699
 O,0,8.494506705,8.7006950226,-5.4342856567
 C,0,9.1106416877,4.9696011001,-3.4167761456
 C,0,8.82620624,6.2455852471,-4.0710814898
 C,0,7.7794200246,7.0602790273,-3.8476171057
 C,0,7.640979255,8.320258145,-4.6182197659
 O,0,3.1843426733,7.0526070831,-2.4611873028
 C,0,3.0896330295,10.1131189191,-1.2836390441
 C,0,1.6741794677,10.6618500215,-0.9882294317
 C,0,0.6478342886,9.6618928267,-1.5934430662
 C,0,1.3490666639,8.5385127236,-2.3581142726
 N,0,6.5218924243,9.0664890326,-4.390734453
 C,0,6.2684247159,10.2757558488,-5.1970565348
 C,0,4.893096919,10.7630783575,-4.7086538026
 C,0,3.0430963196,7.6718136756,-3.7305076066
 C,0,4.4187287432,7.7667723732,-4.3677460653
 C,0,5.3418673088,8.7036631642,-3.5877413957
 C,0,4.7187042455,10.0889649301,-3.3301005192
 C,0,3.2586967765,10.110244316,-2.8288018545
 C,0,2.340625829,9.0082096453,-3.4447870308
 H,0,1.5588999671,5.117464608,-5.203592075
 H,0,3.3107927133,5.3921894683,-5.3562628225
 H,0,2.5936493917,5.0814523203,-3.7484165602
 H,0,-0.2195810795,11.8507212771,1.6892864574
 H,0,0.0645088847,12.6600761842,0.1389343128
 H,0,-0.7893421669,11.1095658619,0.1866180449
 H,0,3.4290608236,11.2460498065,1.2323544993
 H,0,2.6662981653,12.7180191358,0.6086951095
 H,0,2.1907949149,12.0706285201,2.1868683598
 H,0,1.300274433,10.0042441576,1.0358042076
 H,0,1.1151077001,5.9474244757,-1.2465505851
 H,0,2.4414880641,6.0906271028,-0.0709167811
 H,0,0.9969770681,7.1034979021,0.1013587116
 H,0,4.2451235173,8.3374635304,-0.7191092931
 H,0,2.9169700602,8.7207074193,0.3666811173
 H,0,6.451539563,10.6316625211,-2.5802147914
 H,0,10.9314324363,4.6986253792,-4.5379276924
 H,0,11.5031695805,2.5288651728,-3.4864318677
 H,0,10.0024555065,1.552481922,-1.7570412952
 H,0,7.9326168278,2.7625827751,-1.0938429275
 H,0,7.3624413971,4.9183541231,-2.138279523
 H,0,9.5453490418,6.5668048615,-4.8233768912
 H,0,7.0212542945,6.8077241001,-3.1143849122
 H,0,3.8450125937,10.7716898167,-0.8595714198
 H,0,0.0393379484,9.2123708526,-0.7982502754
 H,0,-0.0559188756,10.1705387492,-2.2611205642
 H,0,0.6141513694,7.8660706608,-2.8088881118
 H,0,6.2882663281,10.0356588551,-6.2646646939
 H,0,7.0632469294,11.0064215746,-5.0154969032
 H,0,4.841098601,11.8495193759,-4.6073642335
 H,0,4.0993616623,10.4475048575,-5.3937608409
 H,0,4.3018840208,8.1243824337,-5.3959813005
 H,0,4.8786090767,6.7747661558,-4.4209173028
 Recover connectivity data from disk.
                           ----------------------------
                           !    Current Parameters    !
                           ! (Angstroms and Degrees)  !
 --------------------------                            --------------------------
 ! Name  Definition              Value                                          !
 --------------------------------------------------------------------------------
 ! R1    R(1,2)                  1.4214                                         !
 ! R2    R(1,38)                 1.0928                                         !
 ! R3    R(1,39)                 1.0986                                         !
 ! R4    R(1,40)                 1.0951                                         !
 ! R5    R(2,32)                 1.4268                                         !
 ! R6    R(3,26)                 1.0999                                         !
 ! R7    R(4,6)                  1.5361                                         !
 ! R8    R(4,41)                 1.096                                          !
 ! R9    R(4,42)                 1.0978                                         !
 ! R10   R(4,43)                 1.095                                          !
 ! R11   R(5,6)                  1.5338                                         !
 ! R12   R(5,44)                 1.0944                                         !
 ! R13   R(5,45)                 1.0979                                         !
 ! R14   R(5,46)                 1.0961                                         !
 ! R15   R(6,26)                 1.5454                                         !
 ! R16   R(6,47)                 1.1003                                         !
 ! R17   R(7,9)                  1.5174                                         !
 ! R18   R(7,48)                 1.0948                                         !
 ! R19   R(7,49)                 1.0957                                         !
 ! R20   R(7,50)                 1.0954                                         !
 ! R21   R(8,9)                  1.5476                                         !
 ! R22   R(8,25)                 1.5363                                         !
 ! R23   R(8,51)                 1.0944                                         !
 ! R24   R(8,52)                 1.0956                                         !
 ! R25   R(9,24)                 1.4602                                         !
 ! R26   R(9,28)                 1.5434                                         !
 ! R27   R(10,36)                1.0972                                         !
 ! R28   R(11,37)                1.0928                                         !
 ! R29   R(12,35)                1.4323                                         !
 ! R30   R(12,53)                0.9759                                         !
 ! R31   R(13,34)                1.0909                                         !
 ! R32   R(14,15)                1.3937                                         !
 ! R33   R(14,20)                1.4065                                         !
 ! R34   R(14,54)                1.0878                                         !
 ! R35   R(15,16)                1.3957                                         !
 ! R36   R(15,55)                1.0869                                         !
 ! R37   R(16,17)                1.3995                                         !
 ! R38   R(16,56)                1.0869                                         !
 ! R39   R(17,18)                1.3907                                         !
 ! R40   R(17,57)                1.087                                          !
 ! R41   R(18,20)                1.4086                                         !
 ! R42   R(18,58)                1.0865                                         !
 ! R43   R(19,23)                1.2406                                         !
 ! R44   R(20,21)                1.4619                                         !
 ! R45   R(21,22)                1.3451                                         !
 ! R46   R(21,59)                1.0892                                         !
 ! R47   R(22,23)                1.4834                                         !
 ! R48   R(22,60)                1.0845                                         !
 ! R49   R(23,29)                1.3642                                         !
 ! R50   R(24,32)                1.4193                                         !
 ! R51   R(25,26)                1.5466                                         !
 ! R52   R(25,36)                1.5544                                         !
 ! R53   R(25,61)                1.0882                                         !
 ! R54   R(26,27)                1.5555                                         !
 ! R55   R(27,28)                1.5292                                         !
 ! R56   R(27,62)                1.0976                                         !
 ! R57   R(27,63)                1.0953                                         !
 ! R58   R(28,37)                1.5442                                         !
 ! R59   R(28,64)                1.0934                                         !
 ! R60   R(29,30)                1.4754                                         !
 ! R61   R(29,34)                1.4727                                         !
 ! R62   R(30,31)                1.5387                                         !
 ! R63   R(30,65)                1.0945                                         !
 ! R64   R(30,66)                1.0948                                         !
 ! R65   R(31,35)                1.5444                                         !
 ! R66   R(31,67)                1.0924                                         !
 ! R67   R(31,68)                1.095                                          !
 ! R68   R(32,33)                1.519                                          !
 ! R69   R(32,37)                1.5366                                         !
 ! R70   R(33,34)                1.5292                                         !
 ! R71   R(33,69)                1.0949                                         !
 ! R72   R(33,70)                1.0947                                         !
 ! R73   R(34,35)                1.5407                                         !
 ! R74   R(35,36)                1.5438                                         !
 ! R75   R(36,37)                1.561                                          !
 ! A1    A(2,1,38)             106.3048                                         !
 ! A2    A(2,1,39)             112.1564                                         !
 ! A3    A(2,1,40)             111.0723                                         !
 ! A4    A(38,1,39)            108.6245                                         !
 ! A5    A(38,1,40)            109.4311                                         !
 ! A6    A(39,1,40)            109.1638                                         !
 ! A7    A(1,2,32)             115.5192                                         !
 ! A8    A(6,4,41)             110.9481                                         !
 ! A9    A(6,4,42)             110.4668                                         !
 ! A10   A(6,4,43)             112.072                                          !
 ! A11   A(41,4,42)            107.732                                          !
 ! A12   A(41,4,43)            107.7455                                         !
 ! A13   A(42,4,43)            107.7031                                         !
 ! A14   A(6,5,44)             112.2234                                         !
 ! A15   A(6,5,45)             110.8001                                         !
 ! A16   A(6,5,46)             110.6142                                         !
 ! A17   A(44,5,45)            107.7957                                         !
 ! A18   A(44,5,46)            107.5924                                         !
 ! A19   A(45,5,46)            107.6305                                         !
 ! A20   A(4,6,5)              109.8448                                         !
 ! A21   A(4,6,26)             110.123                                          !
 ! A22   A(4,6,47)             107.5353                                         !
 ! A23   A(5,6,26)             112.7907                                         !
 ! A24   A(5,6,47)             108.0327                                         !
 ! A25   A(26,6,47)            108.3432                                         !
 ! A26   A(9,7,48)             110.458                                          !
 ! A27   A(9,7,49)             110.581                                          !
 ! A28   A(9,7,50)             110.4939                                         !
 ! A29   A(48,7,49)            108.5369                                         !
 ! A30   A(48,7,50)            108.6995                                         !
 ! A31   A(49,7,50)            107.9985                                         !
 ! A32   A(9,8,25)             109.6582                                         !
 ! A33   A(9,8,51)             108.3265                                         !
 ! A34   A(9,8,52)             110.5999                                         !
 ! A35   A(25,8,51)            111.8066                                         !
 ! A36   A(25,8,52)            109.6451                                         !
 ! A37   A(51,8,52)            106.7686                                         !
 ! A38   A(7,9,8)              113.4952                                         !
 ! A39   A(7,9,24)             107.8891                                         !
 ! A40   A(7,9,28)             115.1813                                         !
 ! A41   A(8,9,24)             107.2614                                         !
 ! A42   A(8,9,28)             108.5206                                         !
 ! A43   A(24,9,28)            103.7631                                         !
 ! A44   A(35,12,53)           107.8245                                         !
 ! A45   A(15,14,20)           121.0119                                         !
 ! A46   A(15,14,54)           119.9689                                         !
 ! A47   A(20,14,54)           119.0192                                         !
 ! A48   A(14,15,16)           119.9539                                         !
 ! A49   A(14,15,55)           119.8437                                         !
 ! A50   A(16,15,55)           120.2024                                         !
 ! A51   A(15,16,17)           119.7161                                         !
 ! A52   A(15,16,56)           120.1993                                         !
 ! A53   A(17,16,56)           120.0846                                         !
 ! A54   A(16,17,18)           120.3354                                         !
 ! A55   A(16,17,57)           119.9871                                         !
 ! A56   A(18,17,57)           119.6775                                         !
 ! A57   A(17,18,20)           120.6322                                         !
 ! A58   A(17,18,58)           119.4063                                         !
 ! A59   A(20,18,58)           119.9614                                         !
 ! A60   A(14,20,18)           118.3506                                         !
 ! A61   A(14,20,21)           118.5541                                         !
 ! A62   A(18,20,21)           123.0953                                         !
 ! A63   A(20,21,22)           127.2782                                         !
 ! A64   A(20,21,59)           115.982                                          !
 ! A65   A(22,21,59)           116.7397                                         !
 ! A66   A(21,22,23)           120.0498                                         !
 ! A67   A(21,22,60)           121.0166                                         !
 ! A68   A(23,22,60)           118.9311                                         !
 ! A69   A(19,23,22)           122.5441                                         !
 ! A70   A(19,23,29)           120.4189                                         !
 ! A71   A(22,23,29)           117.0365                                         !
 ! A72   A(9,24,32)            109.8055                                         !
 ! A73   A(8,25,26)            109.0102                                         !
 ! A74   A(8,25,36)            112.0293                                         !
 ! A75   A(8,25,61)            110.3855                                         !
 ! A76   A(26,25,36)           106.8625                                         !
 ! A77   A(26,25,61)           110.2519                                         !
 ! A78   A(36,25,61)           108.2405                                         !
 ! A79   A(3,26,6)             106.1856                                         !
 ! A80   A(3,26,25)            106.766                                          !
 ! A81   A(3,26,27)            108.884                                          !
 ! A82   A(6,26,25)            115.2874                                         !
 ! A83   A(6,26,27)            111.9097                                         !
 ! A84   A(25,26,27)           107.5461                                         !
 ! A85   A(26,27,28)           111.3611                                         !
 ! A86   A(26,27,62)           110.3162                                         !
 ! A87   A(26,27,63)           111.2583                                         !
 ! A88   A(28,27,62)           108.3996                                         !
 ! A89   A(28,27,63)           109.3266                                         !
 ! A90   A(62,27,63)           105.9986                                         !
 ! A91   A(9,28,27)            113.4246                                         !
 ! A92   A(9,28,37)             98.7718                                         !
 ! A93   A(9,28,64)            109.3558                                         !
 ! A94   A(27,28,37)           115.0168                                         !
 ! A95   A(27,28,64)           110.4712                                         !
 ! A96   A(37,28,64)           109.18                                           !
 ! A97   A(23,29,30)           119.878                                          !
 ! A98   A(23,29,34)           127.8402                                         !
 ! A99   A(30,29,34)           111.2392                                         !
 ! A100  A(29,30,31)           103.8674                                         !
 ! A101  A(29,30,65)           110.4991                                         !
 ! A102  A(29,30,66)           109.3697                                         !
 ! A103  A(31,30,65)           113.2856                                         !
 ! A104  A(31,30,66)           112.6381                                         !
 ! A105  A(65,30,66)           107.1588                                         !
 ! A106  A(30,31,35)           104.2418                                         !
 ! A107  A(30,31,67)           112.7659                                         !
 ! A108  A(30,31,68)           110.9805                                         !
 ! A109  A(35,31,67)           110.2407                                         !
 ! A110  A(35,31,68)           110.5385                                         !
 ! A111  A(67,31,68)           108.0678                                         !
 ! A112  A(2,32,24)            111.2514                                         !
 ! A113  A(2,32,33)            111.0561                                         !
 ! A114  A(2,32,37)            105.2526                                         !
 ! A115  A(24,32,33)           108.1987                                         !
 ! A116  A(24,32,37)           104.9889                                         !
 ! A117  A(33,32,37)           115.9538                                         !
 ! A118  A(32,33,34)           111.7783                                         !
 ! A119  A(32,33,69)           108.5261                                         !
 ! A120  A(32,33,70)           110.1307                                         !
 ! A121  A(34,33,69)           110.0805                                         !
 ! A122  A(34,33,70)           109.0486                                         !
 ! A123  A(69,33,70)           107.1689                                         !
 ! A124  A(13,34,29)           110.9175                                         !
 ! A125  A(13,34,33)           110.7492                                         !
 ! A126  A(13,34,35)           109.6918                                         !
 ! A127  A(29,34,33)           110.8872                                         !
 ! A128  A(29,34,35)           101.1713                                         !
 ! A129  A(33,34,35)           113.0795                                         !
 ! A130  A(12,35,31)           109.0293                                         !
 ! A131  A(12,35,34)           109.1114                                         !
 ! A132  A(12,35,36)           107.3757                                         !
 ! A133  A(31,35,34)           101.3921                                         !
 ! A134  A(31,35,36)           112.9925                                         !
 ! A135  A(34,35,36)           116.6925                                         !
 ! A136  A(10,36,25)           105.2293                                         !
 ! A137  A(10,36,35)           104.8838                                         !
 ! A138  A(10,36,37)           106.6574                                         !
 ! A139  A(25,36,35)           115.1933                                         !
 ! A140  A(25,36,37)           109.2446                                         !
 ! A141  A(35,36,37)           114.7293                                         !
 ! A142  A(11,37,28)           113.1097                                         !
 ! A143  A(11,37,32)           109.6005                                         !
 ! A144  A(11,37,36)           111.3598                                         !
 ! A145  A(28,37,32)            99.1989                                         !
 ! A146  A(28,37,36)           108.3417                                         !
 ! A147  A(32,37,36)           114.7403                                         !
 ! D1    D(38,1,2,32)          168.8866                                         !
 ! D2    D(39,1,2,32)          -72.5331                                         !
 ! D3    D(40,1,2,32)           49.9291                                         !
 ! D4    D(1,2,32,24)          -53.2872                                         !
 ! D5    D(1,2,32,33)           67.2968                                         !
 ! D6    D(1,2,32,37)         -166.471                                          !
 ! D7    D(41,4,6,5)           -58.3619                                         !
 ! D8    D(41,4,6,26)          176.8299                                         !
 ! D9    D(41,4,6,47)           58.9722                                         !
 ! D10   D(42,4,6,5)            61.0426                                         !
 ! D11   D(42,4,6,26)          -63.7657                                         !
 ! D12   D(42,4,6,47)          178.3767                                         !
 ! D13   D(43,4,6,5)          -178.8528                                         !
 ! D14   D(43,4,6,26)           56.3389                                         !
 ! D15   D(43,4,6,47)          -61.5187                                         !
 ! D16   D(44,5,6,4)           171.0539                                         !
 ! D17   D(44,5,6,26)          -65.6906                                         !
 ! D18   D(44,5,6,47)           54.0305                                         !
 ! D19   D(45,5,6,4)           -68.3909                                         !
 ! D20   D(45,5,6,26)           54.8645                                         !
 ! D21   D(45,5,6,47)          174.5857                                         !
 ! D22   D(46,5,6,4)            50.8871                                         !
 ! D23   D(46,5,6,26)          174.1426                                         !
 ! D24   D(46,5,6,47)          -66.1363                                         !
 ! D25   D(4,6,26,3)            53.9798                                         !
 ! D26   D(4,6,26,25)          171.9703                                         !
 ! D27   D(4,6,26,27)          -64.7047                                         !
 ! D28   D(5,6,26,3)           -69.1209                                         !
 ! D29   D(5,6,26,25)           48.8696                                         !
 ! D30   D(5,6,26,27)          172.1946                                         !
 ! D31   D(47,6,26,3)          171.3373                                         !
 ! D32   D(47,6,26,25)         -70.6722                                         !
 ! D33   D(47,6,26,27)          52.6528                                         !
 ! D34   D(48,7,9,8)          -176.4681                                         !
 ! D35   D(48,7,9,24)          -57.7624                                         !
 ! D36   D(48,7,9,28)           57.5789                                         !
 ! D37   D(49,7,9,8)           -56.3008                                         !
 ! D38   D(49,7,9,24)           62.405                                          !
 ! D39   D(49,7,9,28)          177.7463                                         !
 ! D40   D(50,7,9,8)            63.2178                                         !
 ! D41   D(50,7,9,24)         -178.0765                                         !
 ! D42   D(50,7,9,28)          -62.7352                                         !
 ! D43   D(25,8,9,7)          -144.0116                                         !
 ! D44   D(25,8,9,24)           96.9223                                         !
 ! D45   D(25,8,9,28)          -14.5979                                         !
 ! D46   D(51,8,9,7)            93.7212                                         !
 ! D47   D(51,8,9,24)          -25.3449                                         !
 ! D48   D(51,8,9,28)         -136.8651                                         !
 ! D49   D(52,8,9,7)           -22.9701                                         !
 ! D50   D(52,8,9,24)         -142.0362                                         !
 ! D51   D(52,8,9,28)          106.4436                                         !
 ! D52   D(9,8,25,26)           69.5418                                         !
 ! D53   D(9,8,25,36)          -48.5169                                         !
 ! D54   D(9,8,25,61)         -169.2194                                         !
 ! D55   D(51,8,25,26)        -170.289                                          !
 ! D56   D(51,8,25,36)          71.6523                                         !
 ! D57   D(51,8,25,61)         -49.0501                                         !
 ! D58   D(52,8,25,26)         -52.0745                                         !
 ! D59   D(52,8,25,36)        -170.1332                                         !
 ! D60   D(52,8,25,61)          69.1644                                         !
 ! D61   D(7,9,24,32)          138.3345                                         !
 ! D62   D(8,9,24,32)          -99.0512                                         !
 ! D63   D(28,9,24,32)          15.6932                                         !
 ! D64   D(7,9,28,27)           80.9672                                         !
 ! D65   D(7,9,28,37)         -156.8127                                         !
 ! D66   D(7,9,28,64)          -42.8247                                         !
 ! D67   D(8,9,28,27)          -47.5027                                         !
 ! D68   D(8,9,28,37)           74.7174                                         !
 ! D69   D(8,9,28,64)         -171.2946                                         !
 ! D70   D(24,9,28,27)        -161.3465                                         !
 ! D71   D(24,9,28,37)         -39.1264                                         !
 ! D72   D(24,9,28,64)          74.8616                                         !
 ! D73   D(53,12,35,31)        -68.0998                                         !
 ! D74   D(53,12,35,34)         41.8159                                         !
 ! D75   D(53,12,35,36)        169.1573                                         !
 ! D76   D(20,14,15,16)          0.0544                                         !
 ! D77   D(20,14,15,55)       -179.9682                                         !
 ! D78   D(54,14,15,16)       -179.9764                                         !
 ! D79   D(54,14,15,55)          0.0009                                         !
 ! D80   D(15,14,20,18)         -0.1052                                         !
 ! D81   D(15,14,20,21)        179.9637                                         !
 ! D82   D(54,14,20,18)        179.9254                                         !
 ! D83   D(54,14,20,21)         -0.0058                                         !
 ! D84   D(14,15,16,17)          0.0209                                         !
 ! D85   D(14,15,16,56)        179.9669                                         !
 ! D86   D(55,15,16,17)       -179.9563                                         !
 ! D87   D(55,15,16,56)         -0.0104                                         !
 ! D88   D(15,16,17,18)         -0.0432                                         !
 ! D89   D(15,16,17,57)        179.9144                                         !
 ! D90   D(56,16,17,18)       -179.9892                                         !
 ! D91   D(56,16,17,57)         -0.0317                                         !
 ! D92   D(16,17,18,20)         -0.0096                                         !
 ! D93   D(16,17,18,58)        179.8537                                         !
 ! D94   D(57,17,18,20)       -179.9672                                         !
 ! D95   D(57,17,18,58)         -0.104                                          !
 ! D96   D(17,18,20,14)          0.0825                                         !
 ! D97   D(17,18,20,21)       -179.9897                                         !
 ! D98   D(58,18,20,14)       -179.78                                           !
 ! D99   D(58,18,20,21)          0.1478                                         !
 ! D100  D(14,20,21,22)       -179.1601                                         !
 ! D101  D(14,20,21,59)          0.9025                                         !
 ! D102  D(18,20,21,22)          0.9122                                         !
 ! D103  D(18,20,21,59)       -179.0252                                         !
 ! D104  D(20,21,22,23)       -179.4036                                         !
 ! D105  D(20,21,22,60)          0.0038                                         !
 ! D106  D(59,21,22,23)          0.5334                                         !
 ! D107  D(59,21,22,60)        179.9407                                         !
 ! D108  D(21,22,23,19)         -3.508                                          !
 ! D109  D(21,22,23,29)        176.7703                                         !
 ! D110  D(60,22,23,19)        177.0724                                         !
 ! D111  D(60,22,23,29)         -2.6494                                         !
 ! D112  D(19,23,29,30)          5.0263                                         !
 ! D113  D(19,23,29,34)        172.2701                                         !
 ! D114  D(22,23,29,30)       -175.2457                                         !
 ! D115  D(22,23,29,34)         -8.0019                                         !
 ! D116  D(9,24,32,2)          -98.3713                                         !
 ! D117  D(9,24,32,33)         139.3762                                         !
 ! D118  D(9,24,32,37)          14.9782                                         !
 ! D119  D(8,25,26,3)         -174.2468                                         !
 ! D120  D(8,25,26,6)           68.0878                                         !
 ! D121  D(8,25,26,27)         -57.5177                                         !
 ! D122  D(36,25,26,3)         -52.9837                                         !
 ! D123  D(36,25,26,6)        -170.649                                          !
 ! D124  D(36,25,26,27)         63.7454                                         !
 ! D125  D(61,25,26,3)          64.4329                                         !
 ! D126  D(61,25,26,6)         -53.2325                                         !
 ! D127  D(61,25,26,27)       -178.838                                          !
 ! D128  D(8,25,36,10)         163.4474                                         !
 ! D129  D(8,25,36,35)         -81.5753                                         !
 ! D130  D(8,25,36,37)          49.2609                                         !
 ! D131  D(26,25,36,10)         44.1185                                         !
 ! D132  D(26,25,36,35)        159.0959                                         !
 ! D133  D(26,25,36,37)        -70.068                                          !
 ! D134  D(61,25,36,10)        -74.6148                                         !
 ! D135  D(61,25,36,35)         40.3626                                         !
 ! D136  D(61,25,36,37)        171.1988                                         !
 ! D137  D(3,26,27,28)         111.196                                          !
 ! D138  D(3,26,27,62)        -128.3922                                         !
 ! D139  D(3,26,27,63)         -11.0443                                         !
 ! D140  D(6,26,27,28)        -131.7315                                         !
 ! D141  D(6,26,27,62)         -11.3197                                         !
 ! D142  D(6,26,27,63)         106.0282                                         !
 ! D143  D(25,26,27,28)         -4.1386                                         !
 ! D144  D(25,26,27,62)        116.2731                                         !
 ! D145  D(25,26,27,63)       -126.379                                          !
 ! D146  D(26,27,28,9)          58.965                                          !
 ! D147  D(26,27,28,37)        -53.715                                          !
 ! D148  D(26,27,28,64)       -177.8538                                         !
 ! D149  D(62,27,28,9)         -62.5687                                         !
 ! D150  D(62,27,28,37)       -175.2487                                         !
 ! D151  D(62,27,28,64)         60.6124                                         !
 ! D152  D(63,27,28,9)        -177.686                                          !
 ! D153  D(63,27,28,37)         69.634                                          !
 ! D154  D(63,27,28,64)        -54.5048                                         !
 ! D155  D(9,28,37,11)         162.6391                                         !
 ! D156  D(9,28,37,32)          46.6254                                         !
 ! D157  D(9,28,37,36)         -73.3971                                         !
 ! D158  D(27,28,37,11)        -76.3033                                         !
 ! D159  D(27,28,37,32)        167.683                                          !
 ! D160  D(27,28,37,36)         47.6605                                         !
 ! D161  D(64,28,37,11)         48.5135                                         !
 ! D162  D(64,28,37,32)        -67.5002                                         !
 ! D163  D(64,28,37,36)        172.4773                                         !
 ! D164  D(23,29,30,31)        176.2725                                         !
 ! D165  D(23,29,30,65)         54.4691                                         !
 ! D166  D(23,29,30,66)        -63.2605                                         !
 ! D167  D(34,29,30,31)          7.0551                                         !
 ! D168  D(34,29,30,65)       -114.7483                                         !
 ! D169  D(34,29,30,66)        127.5221                                         !
 ! D170  D(23,29,34,13)         44.7215                                         !
 ! D171  D(23,29,34,33)        -78.7695                                         !
 ! D172  D(23,29,34,35)        161.0287                                         !
 ! D173  D(30,29,34,13)       -147.1319                                         !
 ! D174  D(30,29,34,33)         89.3771                                         !
 ! D175  D(30,29,34,35)        -30.8248                                         !
 ! D176  D(29,30,31,35)         19.843                                          !
 ! D177  D(29,30,31,67)        139.421                                          !
 ! D178  D(29,30,31,68)        -99.1691                                         !
 ! D179  D(65,30,31,35)        139.7727                                         !
 ! D180  D(65,30,31,67)       -100.6492                                         !
 ! D181  D(65,30,31,68)         20.7607                                         !
 ! D182  D(66,30,31,35)        -98.3922                                         !
 ! D183  D(66,30,31,67)         21.1858                                         !
 ! D184  D(66,30,31,68)        142.5957                                         !
 ! D185  D(30,31,35,12)         76.9346                                         !
 ! D186  D(30,31,35,34)        -38.0761                                         !
 ! D187  D(30,31,35,36)       -163.757                                          !
 ! D188  D(67,31,35,12)        -44.3376                                         !
 ! D189  D(67,31,35,34)       -159.3483                                         !
 ! D190  D(67,31,35,36)         74.9707                                         !
 ! D191  D(68,31,35,12)       -163.753                                          !
 ! D192  D(68,31,35,34)         81.2363                                         !
 ! D193  D(68,31,35,36)        -44.4447                                         !
 ! D194  D(2,32,33,34)         172.0564                                         !
 ! D195  D(2,32,33,69)          50.4676                                         !
 ! D196  D(2,32,33,70)         -66.5595                                         !
 ! D197  D(24,32,33,34)        -65.5717                                         !
 ! D198  D(24,32,33,69)        172.8395                                         !
 ! D199  D(24,32,33,70)         55.8124                                         !
 ! D200  D(37,32,33,34)         51.9965                                         !
 ! D201  D(37,32,33,69)        -69.5923                                         !
 ! D202  D(37,32,33,70)        173.3806                                         !
 ! D203  D(2,32,37,11)         -40.3077                                         !
 ! D204  D(2,32,37,28)          78.3601                                         !
 ! D205  D(2,32,37,36)        -166.4496                                         !
 ! D206  D(24,32,37,11)       -157.8198                                         !
 ! D207  D(24,32,37,28)        -39.152                                          !
 ! D208  D(24,32,37,36)         76.0383                                         !
 ! D209  D(33,32,37,11)         82.8465                                         !
 ! D210  D(33,32,37,28)       -158.4857                                         !
 ! D211  D(33,32,37,36)        -43.2955                                         !
 ! D212  D(32,33,34,13)         71.5562                                         !
 ! D213  D(32,33,34,29)       -164.8562                                         !
 ! D214  D(32,33,34,35)        -52.0248                                         !
 ! D215  D(69,33,34,13)       -167.7562                                         !
 ! D216  D(69,33,34,29)        -44.1686                                         !
 ! D217  D(69,33,34,35)         68.6628                                         !
 ! D218  D(70,33,34,13)        -50.4515                                         !
 ! D219  D(70,33,34,29)         73.1361                                         !
 ! D220  D(70,33,34,35)       -174.0325                                         !
 ! D221  D(13,34,35,12)         43.5157                                         !
 ! D222  D(13,34,35,31)        158.4655                                         !
 ! D223  D(13,34,35,36)        -78.3528                                         !
 ! D224  D(29,34,35,12)        -73.6909                                         !
 ! D225  D(29,34,35,31)         41.2589                                         !
 ! D226  D(29,34,35,36)        164.4406                                         !
 ! D227  D(33,34,35,12)        167.677                                          !
 ! D228  D(33,34,35,31)        -77.3732                                         !
 ! D229  D(33,34,35,36)         45.8084                                         !
 ! D230  D(12,35,36,10)         83.8683                                         !
 ! D231  D(12,35,36,25)        -31.3077                                         !
 ! D232  D(12,35,36,37)       -159.4551                                         !
 ! D233  D(31,35,36,10)        -36.3901                                         !
 ! D234  D(31,35,36,25)       -151.5662                                         !
 ! D235  D(31,35,36,37)         80.2864                                         !
 ! D236  D(34,35,36,10)       -153.3588                                         !
 ! D237  D(34,35,36,25)         91.4652                                         !
 ! D238  D(34,35,36,37)        -36.6822                                         !
 ! D239  D(10,36,37,11)         24.9365                                         !
 ! D240  D(10,36,37,28)       -100.0688                                         !
 ! D241  D(10,36,37,32)        150.1635                                         !
 ! D242  D(25,36,37,11)        138.1945                                         !
 ! D243  D(25,36,37,28)         13.1891                                         !
 ! D244  D(25,36,37,32)        -96.5785                                         !
 ! D245  D(35,36,37,11)        -90.7206                                         !
 ! D246  D(35,36,37,28)        144.2741                                         !
 ! D247  D(35,36,37,32)         34.5064                                         !
 --------------------------------------------------------------------------------
 Stoichiometry    C28H37NO4
 Framework group  C1[X(C28H37NO4)]
 Deg. of freedom   204
 Full point group                 C1      NOp   1
 Largest Abelian subgroup         C1      NOp   1
 Largest concise Abelian subgroup C1      NOp   1
                         Standard orientation:                         
 ---------------------------------------------------------------------
 Center     Atomic      Atomic             Coordinates (Angstroms)
 Number     Number       Type             X           Y           Z
 ---------------------------------------------------------------------
      1          6           0       -0.126799   -1.771484    3.524601
      2          8           0        0.922837   -0.899472    3.126741
      3          1           0        4.807228    0.921865   -0.487671
      4          6           0        6.631285   -0.733021   -1.490090
      5          6           0        4.919012    0.013380   -3.170274
      6          6           0        5.133677   -0.701707   -1.830402
      7          6           0        2.164006   -3.323839    0.230262
      8          6           0        2.108988   -1.128984   -1.092545
      9          6           0        2.035243   -1.813199    0.293644
     10          1           0        3.068450    1.831697    0.392021
     11          1           0        2.576925    0.739028    2.375491
     12          8           0        1.046327    2.211850   -1.486160
     13          1           0       -0.558723    0.452533   -0.564080
     14          6           0       -6.732924   -0.252626   -0.732637
     15          6           0       -7.516267   -1.371879   -1.008465
     16          6           0       -6.910633   -2.611507   -1.219530
     17          6           0       -5.517220   -2.723276   -1.152293
     18          6           0       -4.735445   -1.606438   -0.877527
     19          8           0       -3.278154    3.320754    0.169362
     20          6           0       -5.331443   -0.348275   -0.663257
     21          6           0       -4.562185    0.860058   -0.371146
     22          6           0       -3.224835    0.972331   -0.279966
     23          6           0       -2.609564    2.283758    0.039631
     24          8           0        0.728297   -1.497951    0.863465
     25          6           0        2.844742    0.213835   -0.967592
     26          6           0        4.338868   -0.055878   -0.673100
     27          6           0        4.414535   -0.905183    0.627875
     28          6           0        3.028771   -1.108621    1.241638
     29          7           0       -1.253363    2.313766    0.183800
     30          6           0       -0.586403    3.560684    0.604619
     31          6           0        0.892985    3.159970    0.740211
     32          6           0        0.851095   -0.424059    1.783365
     33          6           0       -0.339058    0.500788    1.594561
     34          6           0       -0.323290    1.172501    0.220912
     35          6           0        1.014722    1.867403   -0.096271
     36          6           0        2.300323    1.069532    0.210334
     37          6           0        2.230878    0.188586    1.497146
     38          1           0        0.175291   -2.197171    4.484639
     39          1           0       -1.078339   -1.239465    3.660551
     40          1           0       -0.266404   -2.577443    2.796493
     41          1           0        7.201536   -1.239134   -2.277429
     42          1           0        7.024875    0.287444   -1.395554
     43          1           0        6.828269   -1.254535   -0.547578
     44          1           0        3.888665   -0.077791   -3.527698
     45          1           0        5.150408    1.083032   -3.082786
     46          1           0        5.575488   -0.406334   -3.941241
     47          1           0        4.797347   -1.743294   -1.942504
     48          1           0        2.042806   -3.760357    1.226909
     49          1           0        1.400298   -3.748105   -0.431084
     50          1           0        3.146663   -3.608894   -0.160851
     51          1           0        1.088939   -1.000286   -1.467461
     52          1           0        2.631473   -1.769767   -1.811404
     53          1           0        0.167330    2.560372   -1.727617
     54          1           0       -7.204703    0.713544   -0.567720
     55          1           0       -8.597827   -1.276204   -1.058123
     56          1           0       -7.517732   -3.487104   -1.434390
     57          1           0       -5.041011   -3.686858   -1.314568
     58          1           0       -3.655135   -1.710892   -0.826505
     59          1           0       -5.142327    1.767538   -0.209244
     60          1           0       -2.580482    0.112539   -0.427594
     61          1           0        2.739643    0.790399   -1.884475
     62          1           0        4.847160   -1.891117    0.414708
     63          1           0        5.074129   -0.439744    1.368202
     64          1           0        3.102950   -1.674329    2.174348
     65          1           0       -1.021378    3.931901    1.537798
     66          1           0       -0.746035    4.332234   -0.155517
     67          1           0        1.574454    3.923258    0.357707
     68          1           0        1.152472    2.966477    1.786251
     69          1           0       -0.319055    1.259106    2.384092
     70          1           0       -1.272942   -0.059060    1.707806
 ---------------------------------------------------------------------
 Rotational constants (GHZ):           0.2112921           0.0708540           0.0656312
 Standard basis: 6-311G(d,p) (5D, 7F)
 There are   849 symmetry adapted cartesian basis functions of A   symmetry.
 There are   816 symmetry adapted basis functions of A   symmetry.
   816 basis functions,  1352 primitive gaussians,   849 cartesian basis functions
   122 alpha electrons      122 beta electrons
       nuclear repulsion energy      3651.9758476811 Hartrees.
 NAtoms=   70 NActive=   70 NUniq=   70 SFac= 1.00D+00 NAtFMM=   60 NAOKFM=T Big=T
 Integral buffers will be    131072 words long.
 Regular integral format.
 Two-electron integral symmetry is turned on.
 Using the following non-standard input for PCM:
 radii=bondi
 --- end of non-standard input.
 ------------------------------------------------------------------------------
 Polarizable Continuum Model (PCM)
 =================================
 Model                : PCM.
 Atomic radii         : Bondi.
 Polarization charges : Total charges.
 Charge compensation  : None.
 Solution method      : On-the-fly selection.
 Cavity type          : Scaled VdW (van der Waals Surface) (Alpha=1.100).
 Cavity algorithm     : GePol (No added spheres)
                        Default sphere list used, NSphG=   70.
                        Lebedev-Laikov grids with approx.  5.0 points / Ang**2.
                        Smoothing algorithm: York/Karplus (Gamma=1.0000).
                        Polarization charges: spherical gaussians, with
                                              point-specific exponents (IZeta= 3).
                        Self-potential: point-specific (ISelfS= 7).
                        Self-field    : sphere-specific E.n sum rule (ISelfD= 2).
 Solvent              : Methanol, Eps=  32.613000 Eps(inf)=   1.765709
 ------------------------------------------------------------------------------
 One-electron integrals computed using PRISM.
 NBasis=   816 RedAO= T EigKep=  1.72D-04  NBF=   816
 NBsUse=   816 1.00D-06 EigRej= -1.00D+00 NBFU=   816
 Initial guess from the checkpoint file:  "Revised-SAH-42C-3-conf-1.chk"
 B after Tr=    -0.000000    0.000000   -0.000000
         Rot=    1.000000   -0.000000    0.000000    0.000000 Ang=   0.00 deg.
 Requested convergence on RMS density matrix=1.00D-08 within 128 cycles.
 Requested convergence on MAX density matrix=1.00D-06.
 Requested convergence on             energy=1.00D-06.
 No special actions if energy rises.
 Inv3:  Mode=1 IEnd=    52417200.
 Iteration    1 A*A^-1 deviation from unit magnitude is 3.77D-15 for   1093.
 Iteration    1 A*A^-1 deviation from orthogonality  is 2.89D-15 for   2201   1624.
 Iteration    1 A^-1*A deviation from unit magnitude is 3.55D-15 for   1093.
 Iteration    1 A^-1*A deviation from orthogonality  is 8.52D-14 for   4097   4089.
 Error on total polarization charges =  0.05657
 SCF Done:  E(RB3LYP) =  -1445.30845460     A.U. after   10 cycles
            NFock= 10  Conv=0.68D-08     -V/T= 2.0043
 DoSCS=F DFT=T ScalE2(SS,OS)=  1.000000  1.000000
 ExpMin= 1.03D-01 ExpMax= 8.59D+03 ExpMxC= 1.30D+03 IAcc=3 IRadAn=         5 AccDes= 0.00D+00
 HarFok:  IExCor=  205 AccDes= 0.00D+00 IRadAn=         5 IDoV=-2 UseB2=F ITyADJ=14
 ICtDFT= 12500011 ScaDFX=  1.000000  1.000000  1.000000  1.000000
 GSVD:  LWork=       -1353 too small for GESVD, short by        5940 words or        5940 for optimal perf.
 Range of M.O.s used for correlation:    34   816
 NBasis=   816 NAE=   122 NBE=   122 NFC=    33 NFV=     0
 NROrb=    783 NOA=    89 NOB=    89 NVA=   694 NVB=   694

 **** Warning!!: The largest alpha MO coefficient is  0.14197425D+02

 NEqPCM:  Using non-equilibrium solvation (IEInf=1, Eps=  32.6130, EpsInf=   1.7657)
 Inv3:  Mode=1 IEnd=    52417200.
 Iteration    1 A*A^-1 deviation from unit magnitude is 3.33D-15 for    224.
 Iteration    1 A*A^-1 deviation from orthogonality  is 3.77D-15 for   3435    405.
 Iteration    1 A^-1*A deviation from unit magnitude is 3.33D-15 for    224.
 Iteration    1 A^-1*A deviation from orthogonality  is 2.87D-15 for   3762   3738.
 Orbital symmetries:
       Occupied  (A) (A) (A) (A) (A) (A) (A) (A) (A) (A) (A) (A)
                 (A) (A) (A) (A) (A) (A) (A) (A) (A) (A) (A) (A)
                 (A) (A) (A) (A) (A) (A) (A) (A) (A) (A) (A) (A)
                 (A) (A) (A) (A) (A) (A) (A) (A) (A) (A) (A) (A)
                 (A) (A) (A) (A) (A) (A) (A) (A) (A) (A) (A) (A)
                 (A) (A) (A) (A) (A) (A) (A) (A) (A) (A) (A) (A)
                 (A) (A) (A) (A) (A) (A) (A) (A) (A) (A) (A) (A)
                 (A) (A) (A) (A) (A) (A) (A) (A) (A) (A) (A) (A)
                 (A) (A) (A) (A) (A) (A) (A) (A) (A) (A) (A) (A)
                 (A) (A) (A) (A) (A) (A) (A) (A) (A) (A) (A) (A)
                 (A) (A)
       Virtual   (A) (A) (A) (A) (A) (A) (A) (A) (A) (A) (A) (A)
                 (A) (A) (A) (A) (A) (A) (A) (A) (A) (A) (A) (A)
                 (A) (A) (A) (A) (A) (A) (A) (A) (A) (A) (A) (A)
                 (A) (A) (A) (A) (A) (A) (A) (A) (A) (A) (A) (A)
                 (A) (A) (A) (A) (A) (A) (A) (A) (A) (A) (A) (A)
                 (A) (A) (A) (A) (A) (A) (A) (A) (A) (A) (A) (A)
                 (A) (A) (A) (A) (A) (A) (A) (A) (A) (A) (A) (A)
                 (A) (A) (A) (A) (A) (A) (A) (A) (A) (A) (A) (A)
                 (A) (A) (A) (A) (A) (A) (A) (A) (A) (A) (A) (A)
                 (A) (A) (A) (A) (A) (A) (A) (A) (A) (A) (A) (A)
                 (A) (A) (A) (A) (A) (A) (A) (A) (A) (A) (A) (A)
                 (A) (A) (A) (A) (A) (A) (A) (A) (A) (A) (A) (A)
                 (A) (A) (A) (A) (A) (A) (A) (A) (A) (A) (A) (A)
                 (A) (A) (A) (A) (A) (A) (A) (A) (A) (A) (A) (A)
                 (A) (A) (A) (A) (A) (A) (A) (A) (A) (A) (A) (A)
                 (A) (A) (A) (A) (A) (A) (A) (A) (A) (A) (A) (A)
                 (A) (A) (A) (A) (A) (A) (A) (A) (A) (A) (A) (A)
                 (A) (A) (A) (A) (A) (A) (A) (A) (A) (A) (A) (A)
                 (A) (A) (A) (A) (A) (A) (A) (A) (A) (A) (A) (A)
                 (A) (A) (A) (A) (A) (A) (A) (A) (A) (A) (A) (A)
                 (A) (A) (A) (A) (A) (A) (A) (A) (A) (A) (A) (A)
                 (A) (A) (A) (A) (A) (A) (A) (A) (A) (A) (A) (A)
                 (A) (A) (A) (A) (A) (A) (A) (A) (A) (A) (A) (A)
                 (A) (A) (A) (A) (A) (A) (A) (A) (A) (A) (A) (A)
                 (A) (A) (A) (A) (A) (A) (A) (A) (A) (A) (A) (A)
                 (A) (A) (A) (A) (A) (A) (A) (A) (A) (A) (A) (A)
                 (A) (A) (A) (A) (A) (A) (A) (A) (A) (A) (A) (A)
                 (A) (A) (A) (A) (A) (A) (A) (A) (A) (A) (A) (A)
                 (A) (A) (A) (A) (A) (A) (A) (A) (A) (A) (A) (A)
                 (A) (A) (A) (A) (A) (A) (A) (A) (A) (A) (A) (A)
                 (A) (A) (A) (A) (A) (A) (A) (A) (A) (A) (A) (A)
                 (A) (A) (A) (A) (A) (A) (A) (A) (A) (A) (A) (A)
                 (A) (A) (A) (A) (A) (A) (A) (A) (A) (A) (A) (A)
                 (A) (A) (A) (A) (A) (A) (A) (A) (A) (A) (A) (A)
                 (A) (A) (A) (A) (A) (A) (A) (A) (A) (A) (A) (A)
                 (A) (A) (A) (A) (A) (A) (A) (A) (A) (A) (A) (A)
                 (A) (A) (A) (A) (A) (A) (A) (A) (A) (A) (A) (A)
                 (A) (A) (A) (A) (A) (A) (A) (A) (A) (A) (A) (A)
                 (A) (A) (A) (A) (A) (A) (A) (A) (A) (A) (A) (A)
                 (A) (A) (A) (A) (A) (A) (A) (A) (A) (A) (A) (A)
                 (A) (A) (A) (A) (A) (A) (A) (A) (A) (A) (A) (A)
                 (A) (A) (A) (A) (A) (A) (A) (A) (A) (A) (A) (A)
                 (A) (A) (A) (A) (A) (A) (A) (A) (A) (A) (A) (A)
                 (A) (A) (A) (A) (A) (A) (A) (A) (A) (A) (A) (A)
                 (A) (A) (A) (A) (A) (A) (A) (A) (A) (A) (A) (A)
                 (A) (A) (A) (A) (A) (A) (A) (A) (A) (A) (A) (A)
                 (A) (A) (A) (A) (A) (A) (A) (A) (A) (A) (A) (A)
                 (A) (A) (A) (A) (A) (A) (A) (A) (A) (A) (A) (A)
                 (A) (A) (A) (A) (A) (A) (A) (A) (A) (A) (A) (A)
                 (A) (A) (A) (A) (A) (A) (A) (A) (A) (A) (A) (A)
                 (A) (A) (A) (A) (A) (A) (A) (A) (A) (A) (A) (A)
                 (A) (A) (A) (A) (A) (A) (A) (A) (A) (A) (A) (A)
                 (A) (A) (A) (A) (A) (A) (A) (A) (A) (A) (A) (A)
                 (A) (A) (A) (A) (A) (A) (A) (A) (A) (A) (A) (A)
                 (A) (A) (A) (A) (A) (A) (A) (A) (A) (A) (A) (A)
                 (A) (A) (A) (A) (A) (A) (A) (A) (A) (A) (A) (A)
                 (A) (A) (A) (A) (A) (A) (A) (A) (A) (A) (A) (A)
                 (A) (A) (A) (A) (A) (A) (A) (A) (A) (A)
    40 initial guesses have been made.
 Convergence on wavefunction:    0.001000000000000
 Iteration     1 Dimension    40 NMult     0 NNew     40
 CISAX will form    40 AO SS matrices at one time.
 New state      1 was old state      4
 New state      2 was old state      1
 New state      3 was old state      5
 New state      4 was old state      3
 New state      5 was old state      2
 New state      9 was old state     10
 New state     10 was old state     11
 Iteration     2 Dimension    60 NMult    40 NNew     20
 New state      1 was old state      2
 New state      2 was old state      1
 New state      3 was old state      5
 New state      4 was old state      3
 New state      5 was old state      4
 New state     10 was old state     11
 Iteration     3 Dimension    80 NMult    60 NNew     20
 New state      9 was old state     10
 New state     10 was old state      9
 Iteration     4 Dimension   100 NMult    80 NNew     20
 Iteration     5 Dimension   112 NMult   100 NNew     12
 ***********************************************************************
 Excited states from <AA,BB:AA,BB> singles matrix:
 ***********************************************************************
 
 Ground to excited state transition densities written to RWF  633
 Ground to excited state transition electric dipole moments (Au):
       state          X           Y           Z        Dip. S.      Osc.
         1        -2.3013     -1.3289     -0.5259      7.3384      0.7415
         2        -0.3712     -0.3341     -0.0820      0.2562      0.0267
         3         0.6729      1.0755      0.2323      1.6635      0.1804
         4        -0.3236      0.1003     -0.0009      0.1148      0.0128
         5        -0.0152      0.0611     -0.0002      0.0040      0.0005
         6        -0.0687      0.0353      0.0299      0.0068      0.0008
         7         0.2197     -0.0113      0.0057      0.0484      0.0062
         8        -0.0348      0.0612      0.0033      0.0050      0.0007
         9         1.1737     -0.0593      0.0847      1.3882      0.1870
        10         0.0080     -0.0343     -0.0141      0.0014      0.0002
 Ground to excited state transition velocity dipole moments (Au):
       state          X           Y           Z        Dip. S.      Osc.
         1         0.3393      0.1995      0.0785      0.1611      0.7086
         2         0.0581      0.0526      0.0135      0.0063      0.0269
         3        -0.1131     -0.1765     -0.0381      0.0454      0.1859
         4         0.0552     -0.0158      0.0003      0.0033      0.0131
         5         0.0016     -0.0101     -0.0006      0.0001      0.0004
         6         0.0113     -0.0061     -0.0052      0.0002      0.0007
         7        -0.0392      0.0023      0.0001      0.0015      0.0053
         8         0.0081     -0.0117     -0.0011      0.0002      0.0007
         9        -0.2352      0.0217     -0.0146      0.0560      0.1848
        10        -0.0027      0.0064      0.0040      0.0001      0.0002
 Ground to excited state transition magnetic dipole moments (Au):
       state          X           Y           Z
         1         0.3736      0.5048     -2.8806
         2         0.2172     -0.2957     -0.7074
         3        -0.1365     -0.3656      1.6747
         4        -0.0447     -0.1095      0.4575
         5        -0.0068     -0.0057      0.0811
         6         0.0497      0.0384      0.1571
         7        -0.0076      0.0272      0.1142
         8         0.0180      0.0372      0.1670
         9         0.0817      0.3553     -1.2525
        10         0.0052      0.0248     -0.0283
 Ground to excited state transition velocity quadrupole moments (Au):
       state          XX          YY          ZZ          XY          XZ          YZ
         1        -4.0981      0.0568      0.0508     -1.5297     -0.7694     -0.2299
         2        -0.8917      0.0053     -0.0040     -0.4649     -0.1663     -0.0731
         3         2.2623      0.0277      0.1190      1.7714      0.5322      0.2127
         4        -1.1814      0.0738      0.0114      0.0781     -0.0839      0.0260
         5         0.1124      0.0089      0.0269      0.1169      0.0300      0.0116
         6         0.0740      0.0605      0.0026      0.1711      0.0205      0.0249
         7         0.2013      0.0144     -0.0059     -0.1394     -0.0003     -0.0192
         8         0.0452      0.0257      0.0165     -0.0001      0.0120     -0.0205
         9         4.4992     -0.5202     -0.0426     -0.0758      0.3886     -0.1104
        10        -0.1409      0.0098      0.0039      0.0174     -0.0084      0.0118
 <0|del|b> * <b|rxdel|0> + <0|del|b> * <b|delr+rdel|0>
 Rotatory Strengths (R) in cgs (10**-40 erg-esu-cm/Gauss)
       state          XX          YY          ZZ    R(velocity)    E-M Angle
         1      -214.4909   -133.5421    354.5961      2.1877       89.93
         2       -51.1419     11.4916    -16.8424    -18.8309      101.39
         3        59.0064    -10.7051     21.9130     23.4048       87.47
         4         1.1816     -1.9455     -1.7756     -0.8465       91.27
         5         0.4749      0.0622     -0.5589     -0.0073       90.00
         6        -3.5058      1.7685     -0.1565     -0.6313      102.05
         7         0.1144      1.9591     -0.7239      0.4499       85.44
         8        -0.8467     -0.3551     -0.4700     -0.5573      100.95
         9        32.7306     41.9360    -50.8254      7.9470       88.74
        10         0.2943     -0.3928      0.2140      0.0385       90.00
 1/2[<0|r|b>*<b|rxdel|0> + (<0|rxdel|b>*<b|r|0>)*]
 Rotatory Strengths (R) in cgs (10**-40 erg-esu-cm/Gauss)
       state          XX          YY          ZZ     R(length)
         1       608.0285    474.3774  -1071.3067      3.6997
         2        57.0161    -69.8638    -41.0027    -17.9502
         3        64.9766    278.0571   -275.1409     22.6309
         4       -10.2347      7.7644      0.2797     -0.7302
         5        -0.0733      0.2450      0.0111      0.0610
         6         2.4149     -0.9577     -3.3170     -0.6199
         7         1.1751      0.2184     -0.4612      0.3108
         8         0.4428     -1.6075     -0.3919     -0.5188
         9       -67.8242     14.9062     75.0431      7.3750
        10        -0.0293      0.6019     -0.2818      0.0969
  1/2[<0|del|b>*<b|r|0> + (<0|r|b>*<b|del|0>)*] (Au)
       state          X           Y           Z        Dip. S.   Osc.(frdel)
         1        -0.7809     -0.2651     -0.0413      1.0872      0.7248
         2        -0.0216     -0.0176     -0.0011      0.0402      0.0268
         3        -0.0761     -0.1898     -0.0089      0.2747      0.1832
         4        -0.0179     -0.0016     -0.0000      0.0194      0.0130
         5        -0.0000     -0.0006      0.0000      0.0006      0.0004
         6        -0.0008     -0.0002     -0.0002      0.0011      0.0008
         7        -0.0086     -0.0000      0.0000      0.0086      0.0058
         8        -0.0003     -0.0007     -0.0000      0.0010      0.0007
         9        -0.2760     -0.0013     -0.0012      0.2785      0.1857
        10        -0.0000     -0.0002     -0.0001      0.0003      0.0002

 Excitation energies and oscillator strengths:
 
 Excited State   1:      Singlet-A      4.1243 eV  300.62 nm  f=0.7415  <S**2>=0.000
     121 ->123         0.19809
     122 ->123         0.67177
 This state for optimization and/or second-order correction.
 Total Energy, E(TD-HF/TD-DFT) =  -1445.15689096    
 Copying the excited state density for this state as the 1-particle RhoCI density.
 
 Excited State   2:      Singlet-A      4.2616 eV  290.93 nm  f=0.0267  <S**2>=0.000
     116 ->123        -0.14623
     117 ->123         0.14647
     118 ->123         0.14246
     119 ->123         0.61859
     119 ->125        -0.10164
     120 ->123        -0.11797
     122 ->123         0.10871
 
 Excited State   3:      Singlet-A      4.4275 eV  280.03 nm  f=0.1804  <S**2>=0.000
     119 ->123         0.10789
     121 ->123         0.66807
     122 ->123        -0.18020
 
 Excited State   4:      Singlet-A      4.5574 eV  272.05 nm  f=0.0128  <S**2>=0.000
     118 ->123         0.62108
     119 ->123        -0.14215
     121 ->124        -0.10187
     122 ->124         0.28138
 
 Excited State   5:      Singlet-A      4.7284 eV  262.21 nm  f=0.0005  <S**2>=0.000
     119 ->123         0.11901
     120 ->123         0.69497
 
 Excited State   6:      Singlet-A      4.9809 eV  248.92 nm  f=0.0008  <S**2>=0.000
     117 ->123         0.67812
     119 ->123        -0.16642
 
 Excited State   7:      Singlet-A      5.2325 eV  236.95 nm  f=0.0062  <S**2>=0.000
     115 ->123         0.23187
     116 ->123         0.64973
     119 ->123         0.13355
 
 Excited State   8:      Singlet-A      5.3804 eV  230.44 nm  f=0.0007  <S**2>=0.000
     115 ->123         0.65536
     116 ->123        -0.21270
     117 ->123        -0.11635
 
 Excited State   9:      Singlet-A      5.4969 eV  225.55 nm  f=0.1870  <S**2>=0.000
     118 ->123        -0.27538
     118 ->125         0.15923
     122 ->124         0.62259
 
 Excited State  10:      Singlet-A      5.5792 eV  222.23 nm  f=0.0002  <S**2>=0.000
     114 ->123         0.69964
 SavETr:  write IOETrn=   770 NScale= 10 NData=  16 NLR=1 NState=   10 LETran=     190.

 **********************************************************************

            Population analysis using the SCF density.

 **********************************************************************

 Orbital symmetries:
       Occupied  (A) (A) (A) (A) (A) (A) (A) (A) (A) (A) (A) (A)
                 (A) (A) (A) (A) (A) (A) (A) (A) (A) (A) (A) (A)
                 (A) (A) (A) (A) (A) (A) (A) (A) (A) (A) (A) (A)
                 (A) (A) (A) (A) (A) (A) (A) (A) (A) (A) (A) (A)
                 (A) (A) (A) (A) (A) (A) (A) (A) (A) (A) (A) (A)
                 (A) (A) (A) (A) (A) (A) (A) (A) (A) (A) (A) (A)
                 (A) (A) (A) (A) (A) (A) (A) (A) (A) (A) (A) (A)
                 (A) (A) (A) (A) (A) (A) (A) (A) (A) (A) (A) (A)
                 (A) (A) (A) (A) (A) (A) (A) (A) (A) (A) (A) (A)
                 (A) (A) (A) (A) (A) (A) (A) (A) (A) (A) (A) (A)
                 (A) (A)
       Virtual   (A) (A) (A) (A) (A) (A) (A) (A) (A) (A) (A) (A)
                 (A) (A) (A) (A) (A) (A) (A) (A) (A) (A) (A) (A)
                 (A) (A) (A) (A) (A) (A) (A) (A) (A) (A) (A) (A)
                 (A) (A) (A) (A) (A) (A) (A) (A) (A) (A) (A) (A)
                 (A) (A) (A) (A) (A) (A) (A) (A) (A) (A) (A) (A)
                 (A) (A) (A) (A) (A) (A) (A) (A) (A) (A) (A) (A)
                 (A) (A) (A) (A) (A) (A) (A) (A) (A) (A) (A) (A)
                 (A) (A) (A) (A) (A) (A) (A) (A) (A) (A) (A) (A)
                 (A) (A) (A) (A) (A) (A) (A) (A) (A) (A) (A) (A)
                 (A) (A) (A) (A) (A) (A) (A) (A) (A) (A) (A) (A)
                 (A) (A) (A) (A) (A) (A) (A) (A) (A) (A) (A) (A)
                 (A) (A) (A) (A) (A) (A) (A) (A) (A) (A) (A) (A)
                 (A) (A) (A) (A) (A) (A) (A) (A) (A) (A) (A) (A)
                 (A) (A) (A) (A) (A) (A) (A) (A) (A) (A) (A) (A)
                 (A) (A) (A) (A) (A) (A) (A) (A) (A) (A) (A) (A)
                 (A) (A) (A) (A) (A) (A) (A) (A) (A) (A) (A) (A)
                 (A) (A) (A) (A) (A) (A) (A) (A) (A) (A) (A) (A)
                 (A) (A) (A) (A) (A) (A) (A) (A) (A) (A) (A) (A)
                 (A) (A) (A) (A) (A) (A) (A) (A) (A) (A) (A) (A)
                 (A) (A) (A) (A) (A) (A) (A) (A) (A) (A) (A) (A)
                 (A) (A) (A) (A) (A) (A) (A) (A) (A) (A) (A) (A)
                 (A) (A) (A) (A) (A) (A) (A) (A) (A) (A) (A) (A)
                 (A) (A) (A) (A) (A) (A) (A) (A) (A) (A) (A) (A)
                 (A) (A) (A) (A) (A) (A) (A) (A) (A) (A) (A) (A)
                 (A) (A) (A) (A) (A) (A) (A) (A) (A) (A) (A) (A)
                 (A) (A) (A) (A) (A) (A) (A) (A) (A) (A) (A) (A)
                 (A) (A) (A) (A) (A) (A) (A) (A) (A) (A) (A) (A)
                 (A) (A) (A) (A) (A) (A) (A) (A) (A) (A) (A) (A)
                 (A) (A) (A) (A) (A) (A) (A) (A) (A) (A) (A) (A)
                 (A) (A) (A) (A) (A) (A) (A) (A) (A) (A) (A) (A)
                 (A) (A) (A) (A) (A) (A) (A) (A) (A) (A) (A) (A)
                 (A) (A) (A) (A) (A) (A) (A) (A) (A) (A) (A) (A)
                 (A) (A) (A) (A) (A) (A) (A) (A) (A) (A) (A) (A)
                 (A) (A) (A) (A) (A) (A) (A) (A) (A) (A) (A) (A)
                 (A) (A) (A) (A) (A) (A) (A) (A) (A) (A) (A) (A)
                 (A) (A) (A) (A) (A) (A) (A) (A) (A) (A) (A) (A)
                 (A) (A) (A) (A) (A) (A) (A) (A) (A) (A) (A) (A)
                 (A) (A) (A) (A) (A) (A) (A) (A) (A) (A) (A) (A)
                 (A) (A) (A) (A) (A) (A) (A) (A) (A) (A) (A) (A)
                 (A) (A) (A) (A) (A) (A) (A) (A) (A) (A) (A) (A)
                 (A) (A) (A) (A) (A) (A) (A) (A) (A) (A) (A) (A)
                 (A) (A) (A) (A) (A) (A) (A) (A) (A) (A) (A) (A)
                 (A) (A) (A) (A) (A) (A) (A) (A) (A) (A) (A) (A)
                 (A) (A) (A) (A) (A) (A) (A) (A) (A) (A) (A) (A)
                 (A) (A) (A) (A) (A) (A) (A) (A) (A) (A) (A) (A)
                 (A) (A) (A) (A) (A) (A) (A) (A) (A) (A) (A) (A)
                 (A) (A) (A) (A) (A) (A) (A) (A) (A) (A) (A) (A)
                 (A) (A) (A) (A) (A) (A) (A) (A) (A) (A) (A) (A)
                 (A) (A) (A) (A) (A) (A) (A) (A) (A) (A) (A) (A)
                 (A) (A) (A) (A) (A) (A) (A) (A) (A) (A) (A) (A)
                 (A) (A) (A) (A) (A) (A) (A) (A) (A) (A) (A) (A)
                 (A) (A) (A) (A) (A) (A) (A) (A) (A) (A) (A) (A)
                 (A) (A) (A) (A) (A) (A) (A) (A) (A) (A) (A) (A)
                 (A) (A) (A) (A) (A) (A) (A) (A) (A) (A) (A) (A)
                 (A) (A) (A) (A) (A) (A) (A) (A) (A) (A) (A) (A)
                 (A) (A) (A) (A) (A) (A) (A) (A) (A) (A) (A) (A)
                 (A) (A) (A) (A) (A) (A) (A) (A) (A) (A) (A) (A)
                 (A) (A) (A) (A) (A) (A) (A) (A) (A) (A)
 The electronic state is 1-A.
 Alpha  occ. eigenvalues --  -19.12196 -19.12060 -19.12049 -19.08277 -14.34300
 Alpha  occ. eigenvalues --  -10.27373 -10.27005 -10.23345 -10.22202 -10.21313
 Alpha  occ. eigenvalues --  -10.20309 -10.20219 -10.19184 -10.19048 -10.18068
 Alpha  occ. eigenvalues --  -10.18054 -10.18026 -10.17909 -10.17868 -10.17847
 Alpha  occ. eigenvalues --  -10.17475 -10.17416 -10.16875 -10.16829 -10.16759
 Alpha  occ. eigenvalues --  -10.16505 -10.16151 -10.16084 -10.15848 -10.15507
 Alpha  occ. eigenvalues --  -10.15488 -10.14954 -10.14904  -1.07154  -1.04009
 Alpha  occ. eigenvalues --   -1.02907  -1.00884  -0.94332  -0.86831  -0.85926
 Alpha  occ. eigenvalues --   -0.81778  -0.80691  -0.79605  -0.78107  -0.76293
 Alpha  occ. eigenvalues --   -0.75492  -0.75365  -0.74188  -0.72892  -0.71728
 Alpha  occ. eigenvalues --   -0.68637  -0.67763  -0.67582  -0.66133  -0.63264
 Alpha  occ. eigenvalues --   -0.62123  -0.61182  -0.60747  -0.59975  -0.58969
 Alpha  occ. eigenvalues --   -0.57548  -0.55386  -0.54563  -0.53906  -0.52621
 Alpha  occ. eigenvalues --   -0.51870  -0.51653  -0.50852  -0.50290  -0.49943
 Alpha  occ. eigenvalues --   -0.48065  -0.47217  -0.46553  -0.46357  -0.46082
 Alpha  occ. eigenvalues --   -0.44978  -0.44432  -0.43990  -0.43373  -0.43238
 Alpha  occ. eigenvalues --   -0.42764  -0.42560  -0.42341  -0.42099  -0.41885
 Alpha  occ. eigenvalues --   -0.41510  -0.40695  -0.40136  -0.39662  -0.39509
 Alpha  occ. eigenvalues --   -0.39125  -0.38740  -0.38490  -0.38032  -0.37822
 Alpha  occ. eigenvalues --   -0.37667  -0.37289  -0.36895  -0.35744  -0.35553
 Alpha  occ. eigenvalues --   -0.35368  -0.35293  -0.35064  -0.34621  -0.34412
 Alpha  occ. eigenvalues --   -0.34313  -0.33219  -0.33118  -0.32838  -0.31783
 Alpha  occ. eigenvalues --   -0.30958  -0.30622  -0.29383  -0.28841  -0.28349
 Alpha  occ. eigenvalues --   -0.27956  -0.27135  -0.26410  -0.26401  -0.25903
 Alpha  occ. eigenvalues --   -0.24792  -0.23514
 Alpha virt. eigenvalues --   -0.06890  -0.01600   0.01457   0.03289   0.04675
 Alpha virt. eigenvalues --    0.04762   0.05452   0.05681   0.06100   0.06582
 Alpha virt. eigenvalues --    0.07144   0.07663   0.07679   0.08265   0.08671
 Alpha virt. eigenvalues --    0.09276   0.09533   0.09982   0.10380   0.10768
 Alpha virt. eigenvalues --    0.10961   0.11053   0.11529   0.11994   0.12126
 Alpha virt. eigenvalues --    0.12235   0.12821   0.13067   0.13145   0.14026
 Alpha virt. eigenvalues --    0.14175   0.14502   0.14725   0.15027   0.15053
 Alpha virt. eigenvalues --    0.15198   0.15418   0.15535   0.15985   0.16614
 Alpha virt. eigenvalues --    0.16917   0.17259   0.18375   0.18421   0.18741
 Alpha virt. eigenvalues --    0.19477   0.19747   0.20097   0.20584   0.20885
 Alpha virt. eigenvalues --    0.21787   0.21841   0.22598   0.22724   0.23337
 Alpha virt. eigenvalues --    0.23831   0.24083   0.24860   0.25114   0.25279
 Alpha virt. eigenvalues --    0.25603   0.26111   0.26816   0.26943   0.27588
 Alpha virt. eigenvalues --    0.27788   0.28062   0.28854   0.29156   0.29280
 Alpha virt. eigenvalues --    0.29565   0.30727   0.31367   0.31540   0.32103
 Alpha virt. eigenvalues --    0.32625   0.32908   0.33671   0.34245   0.34717
 Alpha virt. eigenvalues --    0.35158   0.35843   0.35863   0.36163   0.36752
 Alpha virt. eigenvalues --    0.37496   0.37762   0.38040   0.38711   0.39054
 Alpha virt. eigenvalues --    0.39187   0.39480   0.39792   0.40248   0.40747
 Alpha virt. eigenvalues --    0.40762   0.40990   0.41450   0.42592   0.42971
 Alpha virt. eigenvalues --    0.43135   0.43355   0.43812   0.44079   0.44531
 Alpha virt. eigenvalues --    0.44763   0.45583   0.45812   0.46551   0.46655
 Alpha virt. eigenvalues --    0.46716   0.47518   0.48150   0.49172   0.49340
 Alpha virt. eigenvalues --    0.50132   0.50440   0.50692   0.51230   0.51454
 Alpha virt. eigenvalues --    0.51856   0.52112   0.52464   0.52950   0.53526
 Alpha virt. eigenvalues --    0.53927   0.54113   0.54696   0.55365   0.55625
 Alpha virt. eigenvalues --    0.55937   0.56269   0.56766   0.56902   0.57363
 Alpha virt. eigenvalues --    0.57519   0.58116   0.58174   0.58438   0.58606
 Alpha virt. eigenvalues --    0.58902   0.59117   0.59523   0.59537   0.60024
 Alpha virt. eigenvalues --    0.60102   0.60367   0.60444   0.60639   0.60834
 Alpha virt. eigenvalues --    0.61198   0.61208   0.61473   0.61599   0.61791
 Alpha virt. eigenvalues --    0.62199   0.62457   0.62786   0.63146   0.63504
 Alpha virt. eigenvalues --    0.63583   0.63951   0.64081   0.64414   0.64923
 Alpha virt. eigenvalues --    0.65080   0.65938   0.66151   0.66513   0.66605
 Alpha virt. eigenvalues --    0.67233   0.67506   0.68066   0.68270   0.68906
 Alpha virt. eigenvalues --    0.69967   0.70373   0.70549   0.71612   0.71753
 Alpha virt. eigenvalues --    0.72484   0.73155   0.73668   0.73966   0.74668
 Alpha virt. eigenvalues --    0.75028   0.75533   0.76419   0.76665   0.77401
 Alpha virt. eigenvalues --    0.78243   0.78565   0.79006   0.79425   0.80345
 Alpha virt. eigenvalues --    0.80877   0.81164   0.82139   0.83082   0.83689
 Alpha virt. eigenvalues --    0.84113   0.85056   0.86349   0.87557   0.88352
 Alpha virt. eigenvalues --    0.88953   0.89903   0.90825   0.91286   0.91578
 Alpha virt. eigenvalues --    0.92293   0.93530   0.94050   0.94361   0.95684
 Alpha virt. eigenvalues --    0.96298   0.97813   0.98527   0.98729   0.99640
 Alpha virt. eigenvalues --    1.00132   1.00466   1.00847   1.01733   1.02696
 Alpha virt. eigenvalues --    1.04076   1.04306   1.05086   1.06053   1.06151
 Alpha virt. eigenvalues --    1.07361   1.07771   1.08994   1.09119   1.09616
 Alpha virt. eigenvalues --    1.10110   1.11373   1.12244   1.12949   1.13402
 Alpha virt. eigenvalues --    1.14124   1.14614   1.15775   1.16415   1.17962
 Alpha virt. eigenvalues --    1.18438   1.18549   1.20052   1.20283   1.21373
 Alpha virt. eigenvalues --    1.22116   1.22385   1.23096   1.24858   1.24937
 Alpha virt. eigenvalues --    1.25935   1.26062   1.27220   1.28776   1.29709
 Alpha virt. eigenvalues --    1.31157   1.31415   1.32779   1.33621   1.34359
 Alpha virt. eigenvalues --    1.35075   1.36776   1.37233   1.37462   1.37911
 Alpha virt. eigenvalues --    1.38852   1.39710   1.41141   1.42065   1.42425
 Alpha virt. eigenvalues --    1.42580   1.42894   1.43200   1.44091   1.44470
 Alpha virt. eigenvalues --    1.44774   1.45376   1.45554   1.45888   1.46384
 Alpha virt. eigenvalues --    1.46825   1.47040   1.47409   1.48204   1.48868
 Alpha virt. eigenvalues --    1.49502   1.49563   1.50005   1.50638   1.51160
 Alpha virt. eigenvalues --    1.51333   1.51761   1.52450   1.53329   1.53747
 Alpha virt. eigenvalues --    1.54016   1.54259   1.54515   1.54804   1.54869
 Alpha virt. eigenvalues --    1.55179   1.56112   1.56425   1.56540   1.57123
 Alpha virt. eigenvalues --    1.57566   1.57977   1.58614   1.58839   1.59729
 Alpha virt. eigenvalues --    1.59880   1.60211   1.60803   1.61031   1.61319
 Alpha virt. eigenvalues --    1.61831   1.62084   1.62399   1.62812   1.63434
 Alpha virt. eigenvalues --    1.63532   1.64173   1.64838   1.65040   1.65947
 Alpha virt. eigenvalues --    1.67107   1.67364   1.67603   1.68333   1.68642
 Alpha virt. eigenvalues --    1.69062   1.69492   1.70246   1.70470   1.70800
 Alpha virt. eigenvalues --    1.71684   1.71751   1.72424   1.72881   1.73421
 Alpha virt. eigenvalues --    1.73514   1.73886   1.74922   1.75094   1.75339
 Alpha virt. eigenvalues --    1.75834   1.76398   1.76755   1.77230   1.77682
 Alpha virt. eigenvalues --    1.78248   1.78489   1.79046   1.79461   1.79939
 Alpha virt. eigenvalues --    1.80164   1.80980   1.81527   1.82137   1.82669
 Alpha virt. eigenvalues --    1.82770   1.83692   1.84298   1.84475   1.85612
 Alpha virt. eigenvalues --    1.85846   1.86427   1.86695   1.87528   1.87932
 Alpha virt. eigenvalues --    1.88931   1.89609   1.89891   1.90050   1.90896
 Alpha virt. eigenvalues --    1.91256   1.91360   1.91454   1.91742   1.92705
 Alpha virt. eigenvalues --    1.93553   1.94004   1.95006   1.95186   1.96391
 Alpha virt. eigenvalues --    1.96579   1.96922   1.97794   1.98188   1.98875
 Alpha virt. eigenvalues --    1.99820   2.00077   2.00792   2.01284   2.02754
 Alpha virt. eigenvalues --    2.02982   2.04329   2.04688   2.05537   2.06143
 Alpha virt. eigenvalues --    2.06542   2.07144   2.08335   2.08475   2.09542
 Alpha virt. eigenvalues --    2.09976   2.10845   2.11644   2.12582   2.12923
 Alpha virt. eigenvalues --    2.13442   2.13824   2.14364   2.15079   2.15453
 Alpha virt. eigenvalues --    2.16393   2.16742   2.17547   2.18266   2.18750
 Alpha virt. eigenvalues --    2.19946   2.20022   2.21260   2.21817   2.23092
 Alpha virt. eigenvalues --    2.23730   2.24551   2.26149   2.26219   2.26981
 Alpha virt. eigenvalues --    2.27093   2.27995   2.28739   2.29329   2.30053
 Alpha virt. eigenvalues --    2.30859   2.31406   2.31703   2.32262   2.33124
 Alpha virt. eigenvalues --    2.33593   2.34428   2.35044   2.36090   2.36244
 Alpha virt. eigenvalues --    2.36585   2.36943   2.37689   2.37942   2.38934
 Alpha virt. eigenvalues --    2.39836   2.40619   2.40993   2.42065   2.42410
 Alpha virt. eigenvalues --    2.42851   2.44209   2.45116   2.45255   2.45841
 Alpha virt. eigenvalues --    2.46758   2.47207   2.47887   2.48433   2.48779
 Alpha virt. eigenvalues --    2.48941   2.50303   2.50764   2.51894   2.52605
 Alpha virt. eigenvalues --    2.53145   2.53712   2.54263   2.54582   2.54778
 Alpha virt. eigenvalues --    2.55126   2.55480   2.57108   2.57753   2.58177
 Alpha virt. eigenvalues --    2.59066   2.59151   2.59540   2.60327   2.60645
 Alpha virt. eigenvalues --    2.60982   2.61817   2.62016   2.62402   2.63295
 Alpha virt. eigenvalues --    2.63656   2.64165   2.65135   2.65360   2.65657
 Alpha virt. eigenvalues --    2.66116   2.66574   2.67107   2.67700   2.68083
 Alpha virt. eigenvalues --    2.68647   2.69010   2.69439   2.70239   2.70663
 Alpha virt. eigenvalues --    2.71117   2.72579   2.72699   2.73791   2.74293
 Alpha virt. eigenvalues --    2.75136   2.76303   2.77161   2.77405   2.78414
 Alpha virt. eigenvalues --    2.79013   2.79856   2.80539   2.81067   2.81980
 Alpha virt. eigenvalues --    2.82879   2.83014   2.83868   2.84788   2.86203
 Alpha virt. eigenvalues --    2.86991   2.87549   2.88591   2.89103   2.89513
 Alpha virt. eigenvalues --    2.90537   2.90751   2.91186   2.91818   2.93206
 Alpha virt. eigenvalues --    2.93438   2.95416   2.96539   2.97190   2.97921
 Alpha virt. eigenvalues --    2.99045   2.99271   3.00326   3.02100   3.03294
 Alpha virt. eigenvalues --    3.03734   3.04109   3.05089   3.06106   3.06469
 Alpha virt. eigenvalues --    3.07559   3.08493   3.09407   3.10575   3.11334
 Alpha virt. eigenvalues --    3.13239   3.14580   3.15540   3.16046   3.17639
 Alpha virt. eigenvalues --    3.18315   3.19220   3.20597   3.21287   3.23239
 Alpha virt. eigenvalues --    3.24006   3.24759   3.25576   3.26110   3.28174
 Alpha virt. eigenvalues --    3.29442   3.31443   3.31885   3.32188   3.32761
 Alpha virt. eigenvalues --    3.33656   3.34240   3.36255   3.37540   3.38552
 Alpha virt. eigenvalues --    3.41109   3.43166   3.46091   3.47446   3.50089
 Alpha virt. eigenvalues --    3.51332   3.51690   3.54058   3.55792   3.57473
 Alpha virt. eigenvalues --    3.58641   3.59963   3.61022   3.64275   3.65168
 Alpha virt. eigenvalues --    3.67878   3.74203   3.75427   3.77953   3.78287
 Alpha virt. eigenvalues --    3.79377   3.80137   3.81221   3.81427   3.82266
 Alpha virt. eigenvalues --    3.82706   3.83491   3.84288   3.84490   3.86998
 Alpha virt. eigenvalues --    3.91262   3.91555   3.94592   3.97788   4.00683
 Alpha virt. eigenvalues --    4.02011   4.02253   4.03158   4.03844   4.07318
 Alpha virt. eigenvalues --    4.09932   4.10635   4.11978   4.12538   4.13517
 Alpha virt. eigenvalues --    4.14166   4.16815   4.19172   4.19986   4.21314
 Alpha virt. eigenvalues --    4.24699   4.25179   4.26872   4.29906   4.32273
 Alpha virt. eigenvalues --    4.33341   4.40906   4.42112   4.48166   4.51139
 Alpha virt. eigenvalues --    4.53846   4.82838   4.84894   4.91717   4.96419
 Alpha virt. eigenvalues --    5.04566   5.05167   5.14333   5.18266   5.22348
 Alpha virt. eigenvalues --    5.35277   5.36076   5.60997   5.63593   5.68173
 Alpha virt. eigenvalues --    5.79134  23.52568  23.67928  23.74089  23.76433
 Alpha virt. eigenvalues --   23.78803  23.82080  23.82771  23.83204  23.84506
 Alpha virt. eigenvalues --   23.85133  23.86199  23.88584  23.91257  23.91708
 Alpha virt. eigenvalues --   23.91915  23.91982  23.92406  23.93296  23.94638
 Alpha virt. eigenvalues --   23.95159  23.98242  23.99943  24.01764  24.04565
 Alpha virt. eigenvalues --   24.09141  24.17564  24.17623  24.21421  35.58898
 Alpha virt. eigenvalues --   49.95513  49.98871  50.01212  50.05176
          Condensed to atoms (all electrons):
 Mulliken charges:
               1
     1  C   -0.126360
     2  O   -0.418856
     3  H    0.116480
     4  C   -0.277620
     5  C   -0.286908
     6  C   -0.183005
     7  C   -0.224410
     8  C   -0.089469
     9  C    0.010609
    10  H    0.140129
    11  H    0.131810
    12  O   -0.443056
    13  H    0.166541
    14  C   -0.076336
    15  C   -0.116595
    16  C   -0.101763
    17  C   -0.117730
    18  C   -0.079354
    19  O   -0.482775
    20  C   -0.096783
    21  C   -0.035529
    22  C   -0.233637
    23  C    0.449105
    24  O   -0.432881
    25  C   -0.177468
    26  C   -0.167784
    27  C   -0.098956
    28  C   -0.193571
    29  N   -0.425522
    30  C   -0.037974
    31  C   -0.203119
    32  C    0.245123
    33  C   -0.051169
    34  C   -0.070056
    35  C    0.066899
    36  C   -0.099291
    37  C   -0.117162
    38  H    0.121995
    39  H    0.107306
    40  H    0.108289
    41  H    0.108906
    42  H    0.102151
    43  H    0.107986
    44  H    0.114226
    45  H    0.104784
    46  H    0.107488
    47  H    0.115468
    48  H    0.113357
    49  H    0.113197
    50  H    0.116222
    51  H    0.121255
    52  H    0.123335
    53  H    0.272328
    54  H    0.118519
    55  H    0.123414
    56  H    0.124354
    57  H    0.123082
    58  H    0.120040
    59  H    0.109622
    60  H    0.154751
    61  H    0.123164
    62  H    0.122085
    63  H    0.119196
    64  H    0.123693
    65  H    0.134873
    66  H    0.137264
    67  H    0.133081
    68  H    0.140988
    69  H    0.135094
    70  H    0.136927
 Sum of Mulliken charges =  -0.00000
 Mulliken charges with hydrogens summed into heavy atoms:
               1
     1  C    0.211230
     2  O   -0.418856
     4  C    0.041422
     5  C    0.039591
     6  C   -0.067537
     7  C    0.118365
     8  C    0.155122
     9  C    0.010609
    12  O   -0.170728
    14  C    0.042183
    15  C    0.006819
    16  C    0.022591
    17  C    0.005353
    18  C    0.040686
    19  O   -0.482775
    20  C   -0.096783
    21  C    0.074093
    22  C   -0.078886
    23  C    0.449105
    24  O   -0.432881
    25  C   -0.054303
    26  C   -0.051304
    27  C    0.142324
    28  C   -0.069878
    29  N   -0.425522
    30  C    0.234164
    31  C    0.070950
    32  C    0.245123
    33  C    0.220852
    34  C    0.096485
    35  C    0.066899
    36  C    0.040839
    37  C    0.014648
 Electronic spatial extent (au):  <R**2>=          17513.4539
 Charge=             -0.0000 electrons
 Dipole moment (field-independent basis, Debye):
    X=              2.6139    Y=             -3.9631    Z=              0.1945  Tot=              4.7515
 Quadrupole moment (field-independent basis, Debye-Ang):
   XX=           -190.8236   YY=           -202.0122   ZZ=           -203.3842
   XY=             20.0031   XZ=              4.0169   YZ=              4.8019
 Traceless Quadrupole moment (field-independent basis, Debye-Ang):
   XX=              7.9164   YY=             -3.2722   ZZ=             -4.6442
   XY=             20.0031   XZ=              4.0169   YZ=              4.8019
 Octapole moment (field-independent basis, Debye-Ang**2):
  XXX=           -113.3252  YYY=            -55.9227  ZZZ=             30.5059  XYY=             47.0615
  XXY=           -103.6232  XXZ=            -18.8542  XZZ=              2.7942  YZZ=             -0.8624
  YYZ=              2.3214  XYZ=              4.8062
 Hexadecapole moment (field-independent basis, Debye-Ang**3):
 XXXX=         -15833.2661 YYYY=          -4199.4617 ZZZZ=          -2744.3847 XXXY=            417.9776
 XXXZ=            294.2417 YYYX=            356.4632 YYYZ=             -0.9214 ZZZX=            -85.2881
 ZZZY=            -70.1573 XXYY=          -3589.7809 XXZZ=          -3490.8325 YYZZ=          -1091.5258
 XXYZ=            118.8587 YYXZ=             98.7202 ZZXY=            -32.1915
 N-N= 3.651975847681D+03 E-N=-1.066956531444D+04  KE= 1.439164822079D+03
 1\1\GINC-LOCALHOST\SP\RB3LYP TD-FC\6-311G(d,p)\C28H37N1O4\ADMIN\24-Jun
 -2021\0\\# td=(nstates=10,root=1) b3lyp/6-311g(d,p) guess=read geom=ch
 eck integral(ultrafinegrid) scrf=(iefpcm,read,solvent=methanol)\\Candi
 date Structure: Revised-SAH-42C-3, Conformer: 1, energy calculation wi
 th methanol solvation\\0,1\C,0,2.4319349472,5.5616751026,-4.7192076637
 \O,0,2.1414440375,6.9443378637,-4.5633490556\H,0,1.5895683055,11.62252
 10816,-1.5170764244\C,0,0.0294810862,11.681578611,0.6354367571\C,0,2.4
 823470507,11.7912539173,1.1678208515\C,0,1.3793932721,10.9613577,0.498
 901906\C,0,1.6797728518,6.6501259615,-0.6253360618\C,0,3.2139497807,8.
 7025970902,-0.6877509182\C,0,2.3251239871,7.7195750757,-1.4869788767\H
 ,0,2.859591002,11.0757194379,-3.1642110251\H,0,1.8459309329,9.36365578
 84,-4.3520692992\O,0,5.5126918263,10.7881077789,-2.364587207\H,0,5.639
 3511136,8.252436875,-2.6401696038\C,0,10.2760329824,4.2719620866,-3.78
 1841816\C,0,10.5973903012,3.0516123818,-3.1903069303\C,0,9.7559745461,
 2.5042144954,-2.220568829\C,0,8.591796203,3.1855458636,-1.8476221469\C
 ,0,8.271267698,4.4034704726,-2.4374672699\O,0,8.494506705,8.7006950226
 ,-5.4342856567\C,0,9.1106416877,4.9696011001,-3.4167761456\C,0,8.82620
 624,6.2455852471,-4.0710814898\C,0,7.7794200246,7.0602790273,-3.847617
 1057\C,0,7.640979255,8.320258145,-4.6182197659\O,0,3.1843426733,7.0526
 070831,-2.4611873028\C,0,3.0896330295,10.1131189191,-1.2836390441\C,0,
 1.6741794677,10.6618500215,-0.9882294317\C,0,0.6478342886,9.6618928267
 ,-1.5934430662\C,0,1.3490666639,8.5385127236,-2.3581142726\N,0,6.52189
 24243,9.0664890326,-4.390734453\C,0,6.2684247159,10.2757558488,-5.1970
 565348\C,0,4.893096919,10.7630783575,-4.7086538026\C,0,3.0430963196,7.
 6718136756,-3.7305076066\C,0,4.4187287432,7.7667723732,-4.3677460653\C
 ,0,5.3418673088,8.7036631642,-3.5877413957\C,0,4.7187042455,10.0889649
 301,-3.3301005192\C,0,3.2586967765,10.110244316,-2.8288018545\C,0,2.34
 0625829,9.0082096453,-3.4447870308\H,0,1.5588999671,5.117464608,-5.203
 592075\H,0,3.3107927133,5.3921894683,-5.3562628225\H,0,2.5936493917,5.
 0814523203,-3.7484165602\H,0,-0.2195810795,11.8507212771,1.6892864574\
 H,0,0.0645088847,12.6600761842,0.1389343128\H,0,-0.7893421669,11.10956
 58619,0.1866180449\H,0,3.4290608236,11.2460498065,1.2323544993\H,0,2.6
 662981653,12.7180191358,0.6086951095\H,0,2.1907949149,12.0706285201,2.
 1868683598\H,0,1.300274433,10.0042441576,1.0358042076\H,0,1.1151077001
 ,5.9474244757,-1.2465505851\H,0,2.4414880641,6.0906271028,-0.070916781
 1\H,0,0.9969770681,7.1034979021,0.1013587116\H,0,4.2451235173,8.337463
 5304,-0.7191092931\H,0,2.9169700602,8.7207074193,0.3666811173\H,0,6.45
 1539563,10.6316625211,-2.5802147914\H,0,10.9314324363,4.6986253792,-4.
 5379276924\H,0,11.5031695805,2.5288651728,-3.4864318677\H,0,10.0024555
 065,1.552481922,-1.7570412952\H,0,7.9326168278,2.7625827751,-1.0938429
 275\H,0,7.3624413971,4.9183541231,-2.138279523\H,0,9.5453490418,6.5668
 048615,-4.8233768912\H,0,7.0212542945,6.8077241001,-3.1143849122\H,0,3
 .8450125937,10.7716898167,-0.8595714198\H,0,0.0393379484,9.2123708526,
 -0.7982502754\H,0,-0.0559188756,10.1705387492,-2.2611205642\H,0,0.6141
 513694,7.8660706608,-2.8088881118\H,0,6.2882663281,10.0356588551,-6.26
 46646939\H,0,7.0632469294,11.0064215746,-5.0154969032\H,0,4.841098601,
 11.8495193759,-4.6073642335\H,0,4.0993616623,10.4475048575,-5.39376084
 09\H,0,4.3018840208,8.1243824337,-5.3959813005\H,0,4.8786090767,6.7747
 661558,-4.4209173028\\Version=ES64L-G16RevA.03\State=1-A\HF=-1445.3084
 546\RMSD=6.797e-09\PG=C01 [X(C28H37N1O4)]\\@


 THERE IS MUCH PLEASURE TO BE GAINED FROM USELESS KNOWLEDGE

                                       -- BERTRAND RUSSELL
 Job cpu time:       0 days 17 hours  1 minutes 48.7 seconds.
 Elapsed time:       0 days  1 hours 42 minutes 31.3 seconds.
 File lengths (MBytes):  RWF=   4673 Int=      0 D2E=      0 Chk=   1379 Scr=      1
 Normal termination of Gaussian 16 at Thu Jun 24 00:34:30 2021.
