 Entering Gaussian System, Link 0=g16
 Input=Revised-SAH-42C-3-opt_freq-conf-6.com
 Output=Revised-SAH-42C-3-opt_freq-conf-6.log
 Initial command:
 /home/admin/g16/l1.exe "/home/admin/tmp/Gau-48282.inp" -scrdir="/home/admin/tmp/"
 Entering Link 1 = /home/admin/g16/l1.exe PID=     48283.
  
 Copyright (c) 1988,1990,1992,1993,1995,1998,2003,2009,2016,
            Gaussian, Inc.  All Rights Reserved.
  
 This is part of the Gaussian(R) 16 program.  It is based on
 the Gaussian(R) 09 system (copyright 2009, Gaussian, Inc.),
 the Gaussian(R) 03 system (copyright 2003, Gaussian, Inc.),
 the Gaussian(R) 98 system (copyright 1998, Gaussian, Inc.),
 the Gaussian(R) 94 system (copyright 1995, Gaussian, Inc.),
 the Gaussian 92(TM) system (copyright 1992, Gaussian, Inc.),
 the Gaussian 90(TM) system (copyright 1990, Gaussian, Inc.),
 the Gaussian 88(TM) system (copyright 1988, Gaussian, Inc.),
 the Gaussian 86(TM) system (copyright 1986, Carnegie Mellon
 University), and the Gaussian 82(TM) system (copyright 1983,
 Carnegie Mellon University). Gaussian is a federally registered
 trademark of Gaussian, Inc.
  
 This software contains proprietary and confidential information,
 including trade secrets, belonging to Gaussian, Inc.
  
 This software is provided under written license and may be
 used, copied, transmitted, or stored only in accord with that
 written license.
  
 The following legend is applicable only to US Government
 contracts under FAR:
  
                    RESTRICTED RIGHTS LEGEND
  
 Use, reproduction and disclosure by the US Government is
 subject to restrictions as set forth in subparagraphs (a)
 and (c) of the Commercial Computer Software - Restricted
 Rights clause in FAR 52.227-19.
  
 Gaussian, Inc.
 340 Quinnipiac St., Bldg. 40, Wallingford CT 06492
  
  
 ---------------------------------------------------------------
 Warning -- This program may not be used in any manner that
 competes with the business of Gaussian, Inc. or will provide
 assistance to any competitor of Gaussian, Inc.  The licensee
 of this program is prohibited from giving any competitor of
 Gaussian, Inc. access to this program.  By using this program,
 the user acknowledges that Gaussian, Inc. is engaged in the
 business of creating and licensing software in the field of
 computational chemistry and represents and warrants to the
 licensee that it is not a competitor of Gaussian, Inc. and that
 it will not use this program in any manner prohibited above.
 ---------------------------------------------------------------
  

 Cite this work as:
 Gaussian 16, Revision A.03,
 M. J. Frisch, G. W. Trucks, H. B. Schlegel, G. E. Scuseria, 
 M. A. Robb, J. R. Cheeseman, G. Scalmani, V. Barone, 
 G. A. Petersson, H. Nakatsuji, X. Li, M. Caricato, A. V. Marenich, 
 J. Bloino, B. G. Janesko, R. Gomperts, B. Mennucci, H. P. Hratchian, 
 J. V. Ortiz, A. F. Izmaylov, J. L. Sonnenberg, D. Williams-Young, 
 F. Ding, F. Lipparini, F. Egidi, J. Goings, B. Peng, A. Petrone, 
 T. Henderson, D. Ranasinghe, V. G. Zakrzewski, J. Gao, N. Rega, 
 G. Zheng, W. Liang, M. Hada, M. Ehara, K. Toyota, R. Fukuda, 
 J. Hasegawa, M. Ishida, T. Nakajima, Y. Honda, O. Kitao, H. Nakai, 
 T. Vreven, K. Throssell, J. A. Montgomery, Jr., J. E. Peralta, 
 F. Ogliaro, M. J. Bearpark, J. J. Heyd, E. N. Brothers, K. N. Kudin, 
 V. N. Staroverov, T. A. Keith, R. Kobayashi, J. Normand, 
 K. Raghavachari, A. P. Rendell, J. C. Burant, S. S. Iyengar, 
 J. Tomasi, M. Cossi, J. M. Millam, M. Klene, C. Adamo, R. Cammi, 
 J. W. Ochterski, R. L. Martin, K. Morokuma, O. Farkas, 
 J. B. Foresman, and D. J. Fox, Gaussian, Inc., Wallingford CT, 2016.
 
 ******************************************
 Gaussian 16:  ES64L-G16RevA.03 25-Dec-2016
                19-Jun-2021 
 ******************************************
 %mem=40gb
 %nproc=20
 Will use up to   20 processors via shared memory.
 %chk=Revised-SAH-42C-3-conf-6.chk
 ----------------------------------------------------------------------
 # b3lyp/6-31G(d) opt freq=noraman em=gd3bj integral(ultrafinegrid) scr
 f=(iefpcm,read,solvent=methanol)
 ----------------------------------------------------------------------
 1/18=20,19=15,26=6,38=1,40=2/1,3;
 2/9=110,12=2,17=6,18=5,40=1/2;
 3/5=1,6=6,7=1,11=2,25=1,30=1,70=2203,71=1,72=3,74=-5,75=-5,124=41/1,2,3;
 4//1;
 5/5=2,38=5,53=3/2;
 6/7=2,8=2,9=2,10=2,28=1/1;
 7//1,2,3,16;
 1/18=20,19=15,26=6/3(2);
 2/9=110/2;
 99//99;
 2/9=110/2;
 3/5=1,6=6,7=1,11=2,25=1,30=1,70=2205,71=1,72=3,74=-5,75=-5,124=41/1,2,3;
 4/5=5,16=3,69=1/1;
 5/5=2,38=5,53=3/2;
 7//1,2,3,16;
 1/18=20,19=15,26=6/3(-5);
 2/9=110/2;
 6/7=2,8=2,9=2,10=2,19=2,28=1/1;
 99/9=1/99;
 ----------------------------------------------------------------------
 Candidate Structure: Revised-SAH-42C-3, Conformer: 6 geometry optimiza
 tion and frequency calculation with methanol solvation
 ----------------------------------------------------------------------
 Symbolic Z-matrix:
 Charge =  0 Multiplicity = 1
 C                     2.61286   5.46509  -4.63071 
 O                     2.26718   6.83744  -4.50577 
 H                     1.56074   11.61985  -1.57503 
 C                    -0.09316   11.66712   0.51645 
 C                     2.30825   11.7789   1.16798 
 C                     1.25821   10.9406   0.43185 
 C                     1.63472   6.74101  -0.57489 
 C                     3.22513   8.72272  -0.67937 
 C                     2.33709   7.74423  -1.47596 
 H                     2.91895   11.03805  -3.21257 
 H                     1.95845   9.32074  -4.3726 
 O                     5.59315   10.78431  -2.33045 
 H                     5.79316   8.2503   -2.59878 
 C                     8.87575   4.67406  -2.14788 
 C                     9.1316    3.43223  -1.56004 
 C                     9.69797   2.40601  -2.31314 
 C                     10.01483   2.62201  -3.65234 
 C                     9.75955   3.86359  -4.24004 
 O                     8.6176    8.66092  -5.40267 
 C                     9.17423   4.89825  -3.49855 
 C                     8.94654   6.19469  -4.15086 
 C                     7.88723   6.98232  -3.90475 
 C                     7.74192   8.27219  -4.63129 
 O                     3.22562   7.02234  -2.35763 
 C                     3.09237   10.13033  -1.28683 
 C                     1.64461   10.65685  -1.05005 
 C                     0.66243   9.67363  -1.7196 
 C                     1.39243   8.52416  -2.40937 
 N                     6.59294   8.99492  -4.40624 
 C                     6.42978   10.29536  -5.03484 
 C                     5.02372   10.75185  -4.65467 
 C                     3.13686   7.61025  -3.66238 
 C                     4.51547   7.72406  -4.28425 
 C                     5.43661   8.68609  -3.53714 
 C                     4.79846   10.07072  -3.29168 
 C                     3.32116   10.08316  -2.8407 
 C                     2.43414   8.96354  -3.45166 
 H                     1.81482   4.96847  -5.19009 
 H                     3.54003   5.34262  -5.19607 
 H                     2.69285   4.98062  -3.65364 
 H                    -0.36781   11.8533   1.56055 
 H                    -0.05487   12.63333   0.00168 
 H                    -0.89999   11.07848   0.0703 
 H                     3.24147   11.22333   1.30011 
 H                     2.52969   12.70371   0.62479 
 H                     1.95808   12.05143   2.16971 
 H                     1.15215   9.99028   0.96936 
 H                     1.06975   6.01463  -1.16969 
 H                     2.36372   6.16517   0.00625 
 H                     0.94593   7.23095   0.11994 
 H                     4.27516   8.40827  -0.70481 
 H                     2.93774   8.74528   0.37707 
 H                     5.3128    11.71589  -2.33048 
 H                     8.45435   5.46524  -1.53283 
 H                     8.89478   3.27002  -0.51173 
 H                     9.89885   1.44123  -1.85489 
 H                     10.46352   1.826    -4.24078 
 H                     10.01604   4.01386  -5.28665 
 H                     9.68962   6.49179  -4.88928 
 H                     7.13188   6.69046  -3.19225 
 H                     3.79968   10.8155  -0.81412 
 H                    -0.03901   9.25178  -0.99111 
 H                     0.05712   10.21529  -2.45692 
 H                     0.65511   7.85362  -2.86958 
 H                     6.56554   10.2197  -6.11832 
 H                     7.19572   10.96835  -4.63287 
 H                     4.96973   11.84431  -4.60899 
 H                     4.29871   10.40123  -5.39831 
 H                     4.41178   8.01428  -5.33855 
 H                     4.99973   6.74082  -4.30632 
 

 GradGradGradGradGradGradGradGradGradGradGradGradGradGradGradGradGradGrad
 Berny optimization.
 Initialization pass.
                           ----------------------------
                           !    Initial Parameters    !
                           ! (Angstroms and Degrees)  !
 --------------------------                            --------------------------
 ! Name  Definition              Value          Derivative Info.                !
 --------------------------------------------------------------------------------
 ! R1    R(1,2)                  1.4207         estimate D2E/DX2                !
 ! R2    R(1,38)                 1.0938         estimate D2E/DX2                !
 ! R3    R(1,39)                 1.0928         estimate D2E/DX2                !
 ! R4    R(1,40)                 1.0935         estimate D2E/DX2                !
 ! R5    R(2,32)                 1.437          estimate D2E/DX2                !
 ! R6    R(3,26)                 1.1            estimate D2E/DX2                !
 ! R7    R(4,6)                  1.5366         estimate D2E/DX2                !
 ! R8    R(4,41)                 1.0956         estimate D2E/DX2                !
 ! R9    R(4,42)                 1.0955         estimate D2E/DX2                !
 ! R10   R(4,43)                 1.0938         estimate D2E/DX2                !
 ! R11   R(5,6)                  1.5321         estimate D2E/DX2                !
 ! R12   R(5,44)                 1.0941         estimate D2E/DX2                !
 ! R13   R(5,45)                 1.0952         estimate D2E/DX2                !
 ! R14   R(5,46)                 1.0956         estimate D2E/DX2                !
 ! R15   R(6,26)                 1.5575         estimate D2E/DX2                !
 ! R16   R(6,47)                 1.0969         estimate D2E/DX2                !
 ! R17   R(7,9)                  1.5204         estimate D2E/DX2                !
 ! R18   R(7,48)                 1.0957         estimate D2E/DX2                !
 ! R19   R(7,49)                 1.0958         estimate D2E/DX2                !
 ! R20   R(7,50)                 1.0942         estimate D2E/DX2                !
 ! R21   R(8,9)                  1.5429         estimate D2E/DX2                !
 ! R22   R(8,25)                 1.5388         estimate D2E/DX2                !
 ! R23   R(8,51)                 1.0964         estimate D2E/DX2                !
 ! R24   R(8,52)                 1.0951         estimate D2E/DX2                !
 ! R25   R(9,24)                 1.445          estimate D2E/DX2                !
 ! R26   R(9,28)                 1.5401         estimate D2E/DX2                !
 ! R27   R(10,36)                1.1009         estimate D2E/DX2                !
 ! R28   R(11,37)                1.0964         estimate D2E/DX2                !
 ! R29   R(12,35)                1.4369         estimate D2E/DX2                !
 ! R30   R(12,53)                0.9729         estimate D2E/DX2                !
 ! R31   R(13,34)                1.0943         estimate D2E/DX2                !
 ! R32   R(14,15)                1.3976         estimate D2E/DX2                !
 ! R33   R(14,20)                1.4013         estimate D2E/DX2                !
 ! R34   R(14,54)                1.0871         estimate D2E/DX2                !
 ! R35   R(15,16)                1.3932         estimate D2E/DX2                !
 ! R36   R(15,55)                1.0869         estimate D2E/DX2                !
 ! R37   R(16,17)                1.393          estimate D2E/DX2                !
 ! R38   R(16,56)                1.0868         estimate D2E/DX2                !
 ! R39   R(17,18)                1.3972         estimate D2E/DX2                !
 ! R40   R(17,57)                1.0868         estimate D2E/DX2                !
 ! R41   R(18,20)                1.401          estimate D2E/DX2                !
 ! R42   R(18,58)                1.088          estimate D2E/DX2                !
 ! R43   R(19,23)                1.23           estimate D2E/DX2                !
 ! R44   R(20,21)                1.4691         estimate D2E/DX2                !
 ! R45   R(21,22)                1.3428         estimate D2E/DX2                !
 ! R46   R(21,59)                1.0889         estimate D2E/DX2                !
 ! R47   R(22,23)                1.4875         estimate D2E/DX2                !
 ! R48   R(22,60)                1.0786         estimate D2E/DX2                !
 ! R49   R(23,29)                1.3759         estimate D2E/DX2                !
 ! R50   R(24,32)                1.4338         estimate D2E/DX2                !
 ! R51   R(25,26)                1.5586         estimate D2E/DX2                !
 ! R52   R(25,36)                1.5713         estimate D2E/DX2                !
 ! R53   R(25,61)                1.0923         estimate D2E/DX2                !
 ! R54   R(26,27)                1.5426         estimate D2E/DX2                !
 ! R55   R(27,28)                1.5264         estimate D2E/DX2                !
 ! R56   R(27,62)                1.0958         estimate D2E/DX2                !
 ! R57   R(27,63)                1.097          estimate D2E/DX2                !
 ! R58   R(28,37)                1.5377         estimate D2E/DX2                !
 ! R59   R(28,64)                1.0978         estimate D2E/DX2                !
 ! R60   R(29,30)                1.4536         estimate D2E/DX2                !
 ! R61   R(29,34)                1.4791         estimate D2E/DX2                !
 ! R62   R(30,31)                1.5264         estimate D2E/DX2                !
 ! R63   R(30,65)                1.0946         estimate D2E/DX2                !
 ! R64   R(30,66)                1.096          estimate D2E/DX2                !
 ! R65   R(31,35)                1.5403         estimate D2E/DX2                !
 ! R66   R(31,67)                1.0948         estimate D2E/DX2                !
 ! R67   R(31,68)                1.0962         estimate D2E/DX2                !
 ! R68   R(32,33)                1.5167         estimate D2E/DX2                !
 ! R69   R(32,37)                1.5394         estimate D2E/DX2                !
 ! R70   R(33,34)                1.5271         estimate D2E/DX2                !
 ! R71   R(33,69)                1.0984         estimate D2E/DX2                !
 ! R72   R(33,70)                1.0962         estimate D2E/DX2                !
 ! R73   R(34,35)                1.5442         estimate D2E/DX2                !
 ! R74   R(35,36)                1.5447         estimate D2E/DX2                !
 ! R75   R(36,37)                1.5536         estimate D2E/DX2                !
 ! A1    A(2,1,38)             107.8196         estimate D2E/DX2                !
 ! A2    A(2,1,39)             111.1112         estimate D2E/DX2                !
 ! A3    A(2,1,40)             111.5418         estimate D2E/DX2                !
 ! A4    A(38,1,39)            107.6704         estimate D2E/DX2                !
 ! A5    A(38,1,40)            108.0092         estimate D2E/DX2                !
 ! A6    A(39,1,40)            110.5203         estimate D2E/DX2                !
 ! A7    A(1,2,32)             115.0779         estimate D2E/DX2                !
 ! A8    A(6,4,41)             110.6888         estimate D2E/DX2                !
 ! A9    A(6,4,42)             111.1251         estimate D2E/DX2                !
 ! A10   A(6,4,43)             111.826          estimate D2E/DX2                !
 ! A11   A(41,4,42)            107.8616         estimate D2E/DX2                !
 ! A12   A(41,4,43)            107.1729         estimate D2E/DX2                !
 ! A13   A(42,4,43)            107.9848         estimate D2E/DX2                !
 ! A14   A(6,5,44)             111.3941         estimate D2E/DX2                !
 ! A15   A(6,5,45)             111.2431         estimate D2E/DX2                !
 ! A16   A(6,5,46)             110.8773         estimate D2E/DX2                !
 ! A17   A(44,5,45)            108.436          estimate D2E/DX2                !
 ! A18   A(44,5,46)            106.7689         estimate D2E/DX2                !
 ! A19   A(45,5,46)            107.9423         estimate D2E/DX2                !
 ! A20   A(4,6,5)              108.5172         estimate D2E/DX2                !
 ! A21   A(4,6,26)             110.8977         estimate D2E/DX2                !
 ! A22   A(4,6,47)             107.3138         estimate D2E/DX2                !
 ! A23   A(5,6,26)             112.7558         estimate D2E/DX2                !
 ! A24   A(5,6,47)             107.7498         estimate D2E/DX2                !
 ! A25   A(26,6,47)            109.4132         estimate D2E/DX2                !
 ! A26   A(9,7,48)             110.7257         estimate D2E/DX2                !
 ! A27   A(9,7,49)             110.7146         estimate D2E/DX2                !
 ! A28   A(9,7,50)             111.82           estimate D2E/DX2                !
 ! A29   A(48,7,49)            106.4124         estimate D2E/DX2                !
 ! A30   A(48,7,50)            108.4798         estimate D2E/DX2                !
 ! A31   A(49,7,50)            108.5003         estimate D2E/DX2                !
 ! A32   A(9,8,25)             109.0647         estimate D2E/DX2                !
 ! A33   A(9,8,51)             110.9377         estimate D2E/DX2                !
 ! A34   A(9,8,52)             111.1057         estimate D2E/DX2                !
 ! A35   A(25,8,51)            109.6217         estimate D2E/DX2                !
 ! A36   A(25,8,52)            109.8369         estimate D2E/DX2                !
 ! A37   A(51,8,52)            106.239          estimate D2E/DX2                !
 ! A38   A(7,9,8)              112.2318         estimate D2E/DX2                !
 ! A39   A(7,9,24)             108.4229         estimate D2E/DX2                !
 ! A40   A(7,9,28)             114.2029         estimate D2E/DX2                !
 ! A41   A(8,9,24)             106.1368         estimate D2E/DX2                !
 ! A42   A(8,9,28)             110.1683         estimate D2E/DX2                !
 ! A43   A(24,9,28)            105.0923         estimate D2E/DX2                !
 ! A44   A(35,12,53)           108.4306         estimate D2E/DX2                !
 ! A45   A(15,14,20)           120.57           estimate D2E/DX2                !
 ! A46   A(15,14,54)           118.6641         estimate D2E/DX2                !
 ! A47   A(20,14,54)           120.7602         estimate D2E/DX2                !
 ! A48   A(14,15,16)           120.1032         estimate D2E/DX2                !
 ! A49   A(14,15,55)           119.8948         estimate D2E/DX2                !
 ! A50   A(16,15,55)           120.0005         estimate D2E/DX2                !
 ! A51   A(15,16,17)           119.8625         estimate D2E/DX2                !
 ! A52   A(15,16,56)           120.0726         estimate D2E/DX2                !
 ! A53   A(17,16,56)           120.0634         estimate D2E/DX2                !
 ! A54   A(16,17,18)           120.0407         estimate D2E/DX2                !
 ! A55   A(16,17,57)           120.0564         estimate D2E/DX2                !
 ! A56   A(18,17,57)           119.9028         estimate D2E/DX2                !
 ! A57   A(17,18,20)           120.6613         estimate D2E/DX2                !
 ! A58   A(17,18,58)           118.9666         estimate D2E/DX2                !
 ! A59   A(20,18,58)           120.3707         estimate D2E/DX2                !
 ! A60   A(14,20,18)           118.7478         estimate D2E/DX2                !
 ! A61   A(14,20,21)           122.4232         estimate D2E/DX2                !
 ! A62   A(18,20,21)           118.781          estimate D2E/DX2                !
 ! A63   A(20,21,22)           123.9542         estimate D2E/DX2                !
 ! A64   A(20,21,59)           115.8573         estimate D2E/DX2                !
 ! A65   A(22,21,59)           120.1724         estimate D2E/DX2                !
 ! A66   A(21,22,23)           119.7467         estimate D2E/DX2                !
 ! A67   A(21,22,60)           120.9846         estimate D2E/DX2                !
 ! A68   A(23,22,60)           119.2665         estimate D2E/DX2                !
 ! A69   A(19,23,22)           120.7173         estimate D2E/DX2                !
 ! A70   A(19,23,29)           122.0778         estimate D2E/DX2                !
 ! A71   A(22,23,29)           117.204          estimate D2E/DX2                !
 ! A72   A(9,24,32)            108.1992         estimate D2E/DX2                !
 ! A73   A(8,25,26)            109.219          estimate D2E/DX2                !
 ! A74   A(8,25,36)            110.5086         estimate D2E/DX2                !
 ! A75   A(8,25,61)            110.3085         estimate D2E/DX2                !
 ! A76   A(26,25,36)           107.1941         estimate D2E/DX2                !
 ! A77   A(26,25,61)           108.8942         estimate D2E/DX2                !
 ! A78   A(36,25,61)           110.6398         estimate D2E/DX2                !
 ! A79   A(3,26,6)             106.0023         estimate D2E/DX2                !
 ! A80   A(3,26,25)            107.1016         estimate D2E/DX2                !
 ! A81   A(3,26,27)            107.5959         estimate D2E/DX2                !
 ! A82   A(6,26,25)            115.8823         estimate D2E/DX2                !
 ! A83   A(6,26,27)            111.7845         estimate D2E/DX2                !
 ! A84   A(25,26,27)           108.0688         estimate D2E/DX2                !
 ! A85   A(26,27,28)           111.815          estimate D2E/DX2                !
 ! A86   A(26,27,62)           111.3707         estimate D2E/DX2                !
 ! A87   A(26,27,63)           109.1672         estimate D2E/DX2                !
 ! A88   A(28,27,62)           108.4609         estimate D2E/DX2                !
 ! A89   A(28,27,63)           109.3895         estimate D2E/DX2                !
 ! A90   A(62,27,63)           106.4819         estimate D2E/DX2                !
 ! A91   A(9,28,27)            113.6298         estimate D2E/DX2                !
 ! A92   A(9,28,37)             98.0463         estimate D2E/DX2                !
 ! A93   A(9,28,64)            110.8993         estimate D2E/DX2                !
 ! A94   A(27,28,37)           114.5258         estimate D2E/DX2                !
 ! A95   A(27,28,64)           109.1607         estimate D2E/DX2                !
 ! A96   A(37,28,64)           110.2051         estimate D2E/DX2                !
 ! A97   A(23,29,30)           119.5336         estimate D2E/DX2                !
 ! A98   A(23,29,34)           129.7368         estimate D2E/DX2                !
 ! A99   A(30,29,34)           110.6794         estimate D2E/DX2                !
 ! A100  A(29,30,31)           105.2627         estimate D2E/DX2                !
 ! A101  A(29,30,65)           110.6281         estimate D2E/DX2                !
 ! A102  A(29,30,66)           108.1986         estimate D2E/DX2                !
 ! A103  A(31,30,65)           112.4243         estimate D2E/DX2                !
 ! A104  A(31,30,66)           111.6403         estimate D2E/DX2                !
 ! A105  A(65,30,66)           108.5913         estimate D2E/DX2                !
 ! A106  A(30,31,35)           102.8772         estimate D2E/DX2                !
 ! A107  A(30,31,67)           110.7481         estimate D2E/DX2                !
 ! A108  A(30,31,68)           110.1598         estimate D2E/DX2                !
 ! A109  A(35,31,67)           113.4009         estimate D2E/DX2                !
 ! A110  A(35,31,68)           111.2318         estimate D2E/DX2                !
 ! A111  A(67,31,68)           108.3533         estimate D2E/DX2                !
 ! A112  A(2,32,24)            110.5503         estimate D2E/DX2                !
 ! A113  A(2,32,33)            110.4772         estimate D2E/DX2                !
 ! A114  A(2,32,37)            106.0729         estimate D2E/DX2                !
 ! A115  A(24,32,33)           110.3416         estimate D2E/DX2                !
 ! A116  A(24,32,37)           105.3169         estimate D2E/DX2                !
 ! A117  A(33,32,37)           113.8979         estimate D2E/DX2                !
 ! A118  A(32,33,34)           113.2628         estimate D2E/DX2                !
 ! A119  A(32,33,69)           109.1219         estimate D2E/DX2                !
 ! A120  A(32,33,70)           110.0279         estimate D2E/DX2                !
 ! A121  A(34,33,69)           111.1046         estimate D2E/DX2                !
 ! A122  A(34,33,70)           107.964          estimate D2E/DX2                !
 ! A123  A(69,33,70)           105.0321         estimate D2E/DX2                !
 ! A124  A(13,34,29)           109.4062         estimate D2E/DX2                !
 ! A125  A(13,34,33)           111.4174         estimate D2E/DX2                !
 ! A126  A(13,34,35)           110.8188         estimate D2E/DX2                !
 ! A127  A(29,34,33)           108.3975         estimate D2E/DX2                !
 ! A128  A(29,34,35)           103.2527         estimate D2E/DX2                !
 ! A129  A(33,34,35)           113.1628         estimate D2E/DX2                !
 ! A130  A(12,35,31)           106.9458         estimate D2E/DX2                !
 ! A131  A(12,35,34)           108.8487         estimate D2E/DX2                !
 ! A132  A(12,35,36)           109.2463         estimate D2E/DX2                !
 ! A133  A(31,35,34)           101.2693         estimate D2E/DX2                !
 ! A134  A(31,35,36)           113.2452         estimate D2E/DX2                !
 ! A135  A(34,35,36)           116.67           estimate D2E/DX2                !
 ! A136  A(10,36,25)           104.7622         estimate D2E/DX2                !
 ! A137  A(10,36,35)           104.9391         estimate D2E/DX2                !
 ! A138  A(10,36,37)           106.4796         estimate D2E/DX2                !
 ! A139  A(25,36,35)           115.354          estimate D2E/DX2                !
 ! A140  A(25,36,37)           109.1106         estimate D2E/DX2                !
 ! A141  A(35,36,37)           115.1781         estimate D2E/DX2                !
 ! A142  A(11,37,28)           111.6245         estimate D2E/DX2                !
 ! A143  A(11,37,32)           111.6852         estimate D2E/DX2                !
 ! A144  A(11,37,36)           110.0762         estimate D2E/DX2                !
 ! A145  A(28,37,32)            98.6756         estimate D2E/DX2                !
 ! A146  A(28,37,36)           109.0349         estimate D2E/DX2                !
 ! A147  A(32,37,36)           115.2618         estimate D2E/DX2                !
 ! D1    D(38,1,2,32)          173.1909         estimate D2E/DX2                !
 ! D2    D(39,1,2,32)          -69.0418         estimate D2E/DX2                !
 ! D3    D(40,1,2,32)           54.7646         estimate D2E/DX2                !
 ! D4    D(1,2,32,24)          -55.5393         estimate D2E/DX2                !
 ! D5    D(1,2,32,33)           66.8912         estimate D2E/DX2                !
 ! D6    D(1,2,32,37)         -169.2175         estimate D2E/DX2                !
 ! D7    D(41,4,6,5)           -56.3701         estimate D2E/DX2                !
 ! D8    D(41,4,6,26)          179.2604         estimate D2E/DX2                !
 ! D9    D(41,4,6,47)           59.8086         estimate D2E/DX2                !
 ! D10   D(42,4,6,5)            63.4576         estimate D2E/DX2                !
 ! D11   D(42,4,6,26)          -60.9119         estimate D2E/DX2                !
 ! D12   D(42,4,6,47)          179.6363         estimate D2E/DX2                !
 ! D13   D(43,4,6,5)          -175.7912         estimate D2E/DX2                !
 ! D14   D(43,4,6,26)           59.8392         estimate D2E/DX2                !
 ! D15   D(43,4,6,47)          -59.6126         estimate D2E/DX2                !
 ! D16   D(44,5,6,4)           169.3669         estimate D2E/DX2                !
 ! D17   D(44,5,6,26)          -67.3748         estimate D2E/DX2                !
 ! D18   D(44,5,6,47)           53.4701         estimate D2E/DX2                !
 ! D19   D(45,5,6,4)           -69.5213         estimate D2E/DX2                !
 ! D20   D(45,5,6,26)           53.737          estimate D2E/DX2                !
 ! D21   D(45,5,6,47)          174.582          estimate D2E/DX2                !
 ! D22   D(46,5,6,4)            50.6119         estimate D2E/DX2                !
 ! D23   D(46,5,6,26)          173.8702         estimate D2E/DX2                !
 ! D24   D(46,5,6,47)          -65.2848         estimate D2E/DX2                !
 ! D25   D(4,6,26,3)            51.9871         estimate D2E/DX2                !
 ! D26   D(4,6,26,25)          170.6187         estimate D2E/DX2                !
 ! D27   D(4,6,26,27)          -64.9679         estimate D2E/DX2                !
 ! D28   D(5,6,26,3)           -69.9373         estimate D2E/DX2                !
 ! D29   D(5,6,26,25)           48.6942         estimate D2E/DX2                !
 ! D30   D(5,6,26,27)          173.1077         estimate D2E/DX2                !
 ! D31   D(47,6,26,3)          170.1722         estimate D2E/DX2                !
 ! D32   D(47,6,26,25)         -71.1963         estimate D2E/DX2                !
 ! D33   D(47,6,26,27)          53.2172         estimate D2E/DX2                !
 ! D34   D(48,7,9,8)          -175.8989         estimate D2E/DX2                !
 ! D35   D(48,7,9,24)          -58.9868         estimate D2E/DX2                !
 ! D36   D(48,7,9,28)           57.7961         estimate D2E/DX2                !
 ! D37   D(49,7,9,8)           -58.1197         estimate D2E/DX2                !
 ! D38   D(49,7,9,24)           58.7924         estimate D2E/DX2                !
 ! D39   D(49,7,9,28)          175.5753         estimate D2E/DX2                !
 ! D40   D(50,7,9,8)            62.9999         estimate D2E/DX2                !
 ! D41   D(50,7,9,24)          179.912          estimate D2E/DX2                !
 ! D42   D(50,7,9,28)          -63.3051         estimate D2E/DX2                !
 ! D43   D(25,8,9,7)          -140.3953         estimate D2E/DX2                !
 ! D44   D(25,8,9,24)          101.3317         estimate D2E/DX2                !
 ! D45   D(25,8,9,28)          -11.9363         estimate D2E/DX2                !
 ! D46   D(51,8,9,7)            98.7645         estimate D2E/DX2                !
 ! D47   D(51,8,9,24)          -19.5085         estimate D2E/DX2                !
 ! D48   D(51,8,9,28)         -132.7765         estimate D2E/DX2                !
 ! D49   D(52,8,9,7)           -19.1808         estimate D2E/DX2                !
 ! D50   D(52,8,9,24)         -137.4538         estimate D2E/DX2                !
 ! D51   D(52,8,9,28)          109.2783         estimate D2E/DX2                !
 ! D52   D(9,8,25,26)           66.9472         estimate D2E/DX2                !
 ! D53   D(9,8,25,36)          -50.7397         estimate D2E/DX2                !
 ! D54   D(9,8,25,61)         -173.4043         estimate D2E/DX2                !
 ! D55   D(51,8,25,26)        -171.411          estimate D2E/DX2                !
 ! D56   D(51,8,25,36)          70.902          estimate D2E/DX2                !
 ! D57   D(51,8,25,61)         -51.7625         estimate D2E/DX2                !
 ! D58   D(52,8,25,26)         -55.0373         estimate D2E/DX2                !
 ! D59   D(52,8,25,36)        -172.7243         estimate D2E/DX2                !
 ! D60   D(52,8,25,61)          64.6112         estimate D2E/DX2                !
 ! D61   D(7,9,24,32)          139.2256         estimate D2E/DX2                !
 ! D62   D(8,9,24,32)         -100.0089         estimate D2E/DX2                !
 ! D63   D(28,9,24,32)          16.72           estimate D2E/DX2                !
 ! D64   D(7,9,28,27)           79.2279         estimate D2E/DX2                !
 ! D65   D(7,9,28,37)         -159.477          estimate D2E/DX2                !
 ! D66   D(7,9,28,64)          -44.1768         estimate D2E/DX2                !
 ! D67   D(8,9,28,27)          -48.1455         estimate D2E/DX2                !
 ! D68   D(8,9,28,37)           73.1496         estimate D2E/DX2                !
 ! D69   D(8,9,28,64)         -171.5502         estimate D2E/DX2                !
 ! D70   D(24,9,28,27)        -162.0816         estimate D2E/DX2                !
 ! D71   D(24,9,28,37)         -40.7865         estimate D2E/DX2                !
 ! D72   D(24,9,28,64)          74.5137         estimate D2E/DX2                !
 ! D73   D(53,12,35,31)         58.5507         estimate D2E/DX2                !
 ! D74   D(53,12,35,34)        167.2065         estimate D2E/DX2                !
 ! D75   D(53,12,35,36)        -64.3639         estimate D2E/DX2                !
 ! D76   D(20,14,15,16)          0.5166         estimate D2E/DX2                !
 ! D77   D(20,14,15,55)       -179.9341         estimate D2E/DX2                !
 ! D78   D(54,14,15,16)       -178.6219         estimate D2E/DX2                !
 ! D79   D(54,14,15,55)          0.9274         estimate D2E/DX2                !
 ! D80   D(15,14,20,18)         -1.3329         estimate D2E/DX2                !
 ! D81   D(15,14,20,21)       -178.7841         estimate D2E/DX2                !
 ! D82   D(54,14,20,18)        177.7874         estimate D2E/DX2                !
 ! D83   D(54,14,20,21)          0.3363         estimate D2E/DX2                !
 ! D84   D(14,15,16,17)          0.3017         estimate D2E/DX2                !
 ! D85   D(14,15,16,56)        179.8572         estimate D2E/DX2                !
 ! D86   D(55,15,16,17)       -179.2471         estimate D2E/DX2                !
 ! D87   D(55,15,16,56)          0.3085         estimate D2E/DX2                !
 ! D88   D(15,16,17,18)         -0.2792         estimate D2E/DX2                !
 ! D89   D(15,16,17,57)        179.5482         estimate D2E/DX2                !
 ! D90   D(56,16,17,18)       -179.8348         estimate D2E/DX2                !
 ! D91   D(56,16,17,57)         -0.0074         estimate D2E/DX2                !
 ! D92   D(16,17,18,20)         -0.5624         estimate D2E/DX2                !
 ! D93   D(16,17,18,58)        179.8637         estimate D2E/DX2                !
 ! D94   D(57,17,18,20)        179.6099         estimate D2E/DX2                !
 ! D95   D(57,17,18,58)          0.036          estimate D2E/DX2                !
 ! D96   D(17,18,20,14)          1.3566         estimate D2E/DX2                !
 ! D97   D(17,18,20,21)        178.9019         estimate D2E/DX2                !
 ! D98   D(58,18,20,14)       -179.0755         estimate D2E/DX2                !
 ! D99   D(58,18,20,21)         -1.5302         estimate D2E/DX2                !
 ! D100  D(14,20,21,22)        -38.1897         estimate D2E/DX2                !
 ! D101  D(14,20,21,59)        143.2702         estimate D2E/DX2                !
 ! D102  D(18,20,21,22)        144.36           estimate D2E/DX2                !
 ! D103  D(18,20,21,59)        -34.1801         estimate D2E/DX2                !
 ! D104  D(20,21,22,23)       -179.3243         estimate D2E/DX2                !
 ! D105  D(20,21,22,60)          0.1366         estimate D2E/DX2                !
 ! D106  D(59,21,22,23)         -0.844          estimate D2E/DX2                !
 ! D107  D(59,21,22,60)        178.617          estimate D2E/DX2                !
 ! D108  D(21,22,23,19)         -3.9543         estimate D2E/DX2                !
 ! D109  D(21,22,23,29)        175.7189         estimate D2E/DX2                !
 ! D110  D(60,22,23,19)        176.5755         estimate D2E/DX2                !
 ! D111  D(60,22,23,29)         -3.7513         estimate D2E/DX2                !
 ! D112  D(19,23,29,30)         -3.556          estimate D2E/DX2                !
 ! D113  D(19,23,29,34)        179.2819         estimate D2E/DX2                !
 ! D114  D(22,23,29,30)        176.7756         estimate D2E/DX2                !
 ! D115  D(22,23,29,34)         -0.3865         estimate D2E/DX2                !
 ! D116  D(9,24,32,2)          -99.3822         estimate D2E/DX2                !
 ! D117  D(9,24,32,33)         138.1081         estimate D2E/DX2                !
 ! D118  D(9,24,32,37)          14.775          estimate D2E/DX2                !
 ! D119  D(8,25,26,3)         -174.9227         estimate D2E/DX2                !
 ! D120  D(8,25,26,6)           67.0518         estimate D2E/DX2                !
 ! D121  D(8,25,26,27)         -59.2601         estimate D2E/DX2                !
 ! D122  D(36,25,26,3)         -55.17           estimate D2E/DX2                !
 ! D123  D(36,25,26,6)        -173.1955         estimate D2E/DX2                !
 ! D124  D(36,25,26,27)         60.4925         estimate D2E/DX2                !
 ! D125  D(61,25,26,3)          64.5594         estimate D2E/DX2                !
 ! D126  D(61,25,26,6)         -53.4661         estimate D2E/DX2                !
 ! D127  D(61,25,26,27)       -179.7781         estimate D2E/DX2                !
 ! D128  D(8,25,36,10)         163.6425         estimate D2E/DX2                !
 ! D129  D(8,25,36,35)         -81.5312         estimate D2E/DX2                !
 ! D130  D(8,25,36,37)          49.9536         estimate D2E/DX2                !
 ! D131  D(26,25,36,10)         44.7188         estimate D2E/DX2                !
 ! D132  D(26,25,36,35)        159.5451         estimate D2E/DX2                !
 ! D133  D(26,25,36,37)        -68.97           estimate D2E/DX2                !
 ! D134  D(61,25,36,10)        -73.8866         estimate D2E/DX2                !
 ! D135  D(61,25,36,35)         40.9397         estimate D2E/DX2                !
 ! D136  D(61,25,36,37)        172.4245         estimate D2E/DX2                !
 ! D137  D(3,26,27,28)         114.5527         estimate D2E/DX2                !
 ! D138  D(3,26,27,62)        -123.9204         estimate D2E/DX2                !
 ! D139  D(3,26,27,63)          -6.6265         estimate D2E/DX2                !
 ! D140  D(6,26,27,28)        -129.4585         estimate D2E/DX2                !
 ! D141  D(6,26,27,62)          -7.9316         estimate D2E/DX2                !
 ! D142  D(6,26,27,63)         109.3623         estimate D2E/DX2                !
 ! D143  D(25,26,27,28)         -0.7861         estimate D2E/DX2                !
 ! D144  D(25,26,27,62)        120.7408         estimate D2E/DX2                !
 ! D145  D(25,26,27,63)       -121.9653         estimate D2E/DX2                !
 ! D146  D(26,27,28,9)          55.663          estimate D2E/DX2                !
 ! D147  D(26,27,28,37)        -55.9021         estimate D2E/DX2                !
 ! D148  D(26,27,28,64)       -179.9881         estimate D2E/DX2                !
 ! D149  D(62,27,28,9)         -67.5279         estimate D2E/DX2                !
 ! D150  D(62,27,28,37)       -179.093          estimate D2E/DX2                !
 ! D151  D(62,27,28,64)         56.8209         estimate D2E/DX2                !
 ! D152  D(63,27,28,9)         176.7134         estimate D2E/DX2                !
 ! D153  D(63,27,28,37)         65.1483         estimate D2E/DX2                !
 ! D154  D(63,27,28,64)        -58.9378         estimate D2E/DX2                !
 ! D155  D(9,28,37,11)         164.888          estimate D2E/DX2                !
 ! D156  D(9,28,37,32)          47.3348         estimate D2E/DX2                !
 ! D157  D(9,28,37,36)         -73.2829         estimate D2E/DX2                !
 ! D158  D(27,28,37,11)        -74.4843         estimate D2E/DX2                !
 ! D159  D(27,28,37,32)        167.9626         estimate D2E/DX2                !
 ! D160  D(27,28,37,36)         47.3448         estimate D2E/DX2                !
 ! D161  D(64,28,37,11)         49.0438         estimate D2E/DX2                !
 ! D162  D(64,28,37,32)        -68.5093         estimate D2E/DX2                !
 ! D163  D(64,28,37,36)        170.873          estimate D2E/DX2                !
 ! D164  D(23,29,30,31)        175.9583         estimate D2E/DX2                !
 ! D165  D(23,29,30,65)         54.2757         estimate D2E/DX2                !
 ! D166  D(23,29,30,66)        -64.5632         estimate D2E/DX2                !
 ! D167  D(34,29,30,31)         -6.374          estimate D2E/DX2                !
 ! D168  D(34,29,30,65)       -128.0566         estimate D2E/DX2                !
 ! D169  D(34,29,30,66)        113.1045         estimate D2E/DX2                !
 ! D170  D(23,29,34,13)         40.2698         estimate D2E/DX2                !
 ! D171  D(23,29,34,33)        -81.4105         estimate D2E/DX2                !
 ! D172  D(23,29,34,35)        158.3106         estimate D2E/DX2                !
 ! D173  D(30,29,34,13)       -137.0912         estimate D2E/DX2                !
 ! D174  D(30,29,34,33)        101.2285         estimate D2E/DX2                !
 ! D175  D(30,29,34,35)        -19.0503         estimate D2E/DX2                !
 ! D176  D(29,30,31,35)         29.2501         estimate D2E/DX2                !
 ! D177  D(29,30,31,67)        150.7345         estimate D2E/DX2                !
 ! D178  D(29,30,31,68)        -89.4131         estimate D2E/DX2                !
 ! D179  D(65,30,31,35)        149.758          estimate D2E/DX2                !
 ! D180  D(65,30,31,67)        -88.7576         estimate D2E/DX2                !
 ! D181  D(65,30,31,68)         31.0948         estimate D2E/DX2                !
 ! D182  D(66,30,31,35)        -87.9138         estimate D2E/DX2                !
 ! D183  D(66,30,31,67)         33.5707         estimate D2E/DX2                !
 ! D184  D(66,30,31,68)        153.423          estimate D2E/DX2                !
 ! D185  D(30,31,35,12)         73.8569         estimate D2E/DX2                !
 ! D186  D(30,31,35,34)        -40.0398         estimate D2E/DX2                !
 ! D187  D(30,31,35,36)       -165.7511         estimate D2E/DX2                !
 ! D188  D(67,31,35,12)        -45.8064         estimate D2E/DX2                !
 ! D189  D(67,31,35,34)       -159.7031         estimate D2E/DX2                !
 ! D190  D(67,31,35,36)         74.5856         estimate D2E/DX2                !
 ! D191  D(68,31,35,12)       -168.2325         estimate D2E/DX2                !
 ! D192  D(68,31,35,34)         77.8708         estimate D2E/DX2                !
 ! D193  D(68,31,35,36)        -47.8405         estimate D2E/DX2                !
 ! D194  D(2,32,33,34)         172.2614         estimate D2E/DX2                !
 ! D195  D(2,32,33,69)          47.9375         estimate D2E/DX2                !
 ! D196  D(2,32,33,70)         -66.8062         estimate D2E/DX2                !
 ! D197  D(24,32,33,34)        -65.1859         estimate D2E/DX2                !
 ! D198  D(24,32,33,69)        170.4901         estimate D2E/DX2                !
 ! D199  D(24,32,33,70)         55.7465         estimate D2E/DX2                !
 ! D200  D(37,32,33,34)         53.0054         estimate D2E/DX2                !
 ! D201  D(37,32,33,69)        -71.3185         estimate D2E/DX2                !
 ! D202  D(37,32,33,70)        173.9378         estimate D2E/DX2                !
 ! D203  D(2,32,37,11)         -40.1308         estimate D2E/DX2                !
 ! D204  D(2,32,37,28)          77.3761         estimate D2E/DX2                !
 ! D205  D(2,32,37,36)        -166.7235         estimate D2E/DX2                !
 ! D206  D(24,32,37,11)       -157.3681         estimate D2E/DX2                !
 ! D207  D(24,32,37,28)        -39.8612         estimate D2E/DX2                !
 ! D208  D(24,32,37,36)         76.0392         estimate D2E/DX2                !
 ! D209  D(33,32,37,11)         81.5961         estimate D2E/DX2                !
 ! D210  D(33,32,37,28)       -160.897          estimate D2E/DX2                !
 ! D211  D(33,32,37,36)        -44.9966         estimate D2E/DX2                !
 ! D212  D(32,33,34,13)         74.4327         estimate D2E/DX2                !
 ! D213  D(32,33,34,29)       -165.1298         estimate D2E/DX2                !
 ! D214  D(32,33,34,35)        -51.2339         estimate D2E/DX2                !
 ! D215  D(69,33,34,13)       -162.3288         estimate D2E/DX2                !
 ! D216  D(69,33,34,29)        -41.8913         estimate D2E/DX2                !
 ! D217  D(69,33,34,35)         72.0046         estimate D2E/DX2                !
 ! D218  D(70,33,34,13)        -47.6587         estimate D2E/DX2                !
 ! D219  D(70,33,34,29)         72.7788         estimate D2E/DX2                !
 ! D220  D(70,33,34,35)       -173.3253         estimate D2E/DX2                !
 ! D221  D(13,34,35,12)         40.677          estimate D2E/DX2                !
 ! D222  D(13,34,35,31)        153.1383         estimate D2E/DX2                !
 ! D223  D(13,34,35,36)        -83.4653         estimate D2E/DX2                !
 ! D224  D(29,34,35,12)        -76.372          estimate D2E/DX2                !
 ! D225  D(29,34,35,31)         36.0894         estimate D2E/DX2                !
 ! D226  D(29,34,35,36)        159.4857         estimate D2E/DX2                !
 ! D227  D(33,34,35,12)        166.6638         estimate D2E/DX2                !
 ! D228  D(33,34,35,31)        -80.8749         estimate D2E/DX2                !
 ! D229  D(33,34,35,36)         42.5215         estimate D2E/DX2                !
 ! D230  D(12,35,36,10)         84.4821         estimate D2E/DX2                !
 ! D231  D(12,35,36,25)        -30.2425         estimate D2E/DX2                !
 ! D232  D(12,35,36,37)       -158.7839         estimate D2E/DX2                !
 ! D233  D(31,35,36,10)        -34.5936         estimate D2E/DX2                !
 ! D234  D(31,35,36,25)       -149.3183         estimate D2E/DX2                !
 ! D235  D(31,35,36,37)         82.1403         estimate D2E/DX2                !
 ! D236  D(34,35,36,10)       -151.5788         estimate D2E/DX2                !
 ! D237  D(34,35,36,25)         93.6965         estimate D2E/DX2                !
 ! D238  D(34,35,36,37)        -34.8449         estimate D2E/DX2                !
 ! D239  D(10,36,37,11)         24.0833         estimate D2E/DX2                !
 ! D240  D(10,36,37,28)        -98.6788         estimate D2E/DX2                !
 ! D241  D(10,36,37,32)        151.4905         estimate D2E/DX2                !
 ! D242  D(25,36,37,11)        136.6477         estimate D2E/DX2                !
 ! D243  D(25,36,37,28)         13.8856         estimate D2E/DX2                !
 ! D244  D(25,36,37,32)        -95.9451         estimate D2E/DX2                !
 ! D245  D(35,36,37,11)        -91.7737         estimate D2E/DX2                !
 ! D246  D(35,36,37,28)        145.4642         estimate D2E/DX2                !
 ! D247  D(35,36,37,32)         35.6335         estimate D2E/DX2                !
 --------------------------------------------------------------------------------
 Trust Radius=3.00D-01 FncErr=5.00D-06 GrdErr=5.00D-06 EigMax=2.50D+02 EigMin=1.00D-04
 Number of steps in this run=    420 maximum allowed number of steps=    420.
 GradGradGradGradGradGradGradGradGradGradGradGradGradGradGradGradGradGrad

 Stoichiometry    C28H37NO4
 Framework group  C1[X(C28H37NO4)]
 Deg. of freedom   204
 Full point group                 C1      NOp   1
 Largest Abelian subgroup         C1      NOp   1
 Largest concise Abelian subgroup C1      NOp   1
                         Standard orientation:                         
 ---------------------------------------------------------------------
 Center     Atomic      Atomic             Coordinates (Angstroms)
 Number     Number       Type             X           Y           Z
 ---------------------------------------------------------------------
      1          6           0       -0.306480   -1.922436    3.334804
      2          8           0        0.780088   -1.057811    3.034413
      3          1           0        4.867802    0.935051   -0.323987
      4          6           0        6.747976   -0.712134   -1.253309
      5          6           0        5.135444    0.016846   -3.006044
      6          6           0        5.264839   -0.693418   -1.654747
      7          6           0        2.294560   -3.306713    0.117238
      8          6           0        2.170569   -1.082953   -1.110369
      9          6           0        2.077959   -1.807542    0.248681
     10          1           0        3.035150    1.827669    0.518255
     11          1           0        2.475923    0.678894    2.411663
     12          8           0        1.066122    2.269703   -1.462004
     13          1           0       -0.611876    0.516240   -0.660193
     14          6           0       -4.915798   -1.243541   -1.595431
     15          6           0       -5.662278   -2.391269   -1.875860
     16          6           0       -6.894098   -2.592249   -1.256759
     17          6           0       -7.383633   -1.643523   -0.361898
     18          6           0       -6.637691   -0.495829   -0.081793
     19          8           0       -3.330509    3.334893    0.159608
     20          6           0       -5.389589   -0.290214   -0.684207
     21          6           0       -4.651350    0.942632   -0.378885
     22          6           0       -3.314524    1.009206   -0.271448
     23          6           0       -2.664119    2.306181    0.056489
     24          8           0        0.735954   -1.580863    0.734027
     25          6           0        2.911387    0.252133   -0.918716
     26          6           0        4.396435   -0.034575   -0.542246
     27          6           0        4.408796   -0.862588    0.759263
     28          6           0        2.997447   -1.124617    1.278284
     29          7           0       -1.300925    2.296855    0.242924
     30          6           0       -0.603740    3.547025    0.495733
     31          6           0        0.848449    3.152622    0.751674
     32          6           0        0.782088   -0.522898    1.700715
     33          6           0       -0.389098    0.420808    1.505791
     34          6           0       -0.345081    1.170055    0.175804
     35          6           0        1.007646    1.868295   -0.083536
     36          6           0        2.280327    1.066508    0.267727
     37          6           0        2.157234    0.142191    1.510340
     38          1           0       -0.127741   -2.353354    4.324135
     39          1           0       -1.248453   -1.370150    3.378796
     40          1           0       -0.376774   -2.743562    2.616066
     41          1           0        7.353822   -1.187938   -2.032280
     42          1           0        7.129580    0.303876   -1.104557
     43          1           0        6.912000   -1.273248   -0.328782
     44          1           0        4.132821   -0.105113   -3.426630
     45          1           0        5.344031    1.087917   -2.912932
     46          1           0        5.837399   -0.401518   -3.735830
     47          1           0        4.950936   -1.735325   -1.793183
     48          1           0        2.152019   -3.805207    1.082527
     49          1           0        1.561616   -3.745528   -0.569055
     50          1           0        3.298157   -3.542006   -0.249765
     51          1           0        1.172299   -0.894220   -1.522579
     52          1           0        2.696052   -1.696746   -1.849480
     53          1           0        1.815686    2.879816   -1.573156
     54          1           0       -3.968420   -1.099318   -2.108766
     55          1           0       -5.283809   -3.124108   -2.583720
     56          1           0       -7.475250   -3.483831   -1.476956
     57          1           0       -8.347538   -1.793573    0.117251
     58          1           0       -7.037715    0.234799    0.618156
     59          1           0       -5.258641    1.831143   -0.213189
     60          1           0       -2.701893    0.132512   -0.411048
     61          1           0        2.886796    0.835302   -1.842035
     62          1           0        4.909810   -1.826308    0.614658
     63          1           0        4.983665   -0.324456    1.523066
     64          1           0        3.057037   -1.714554    2.202129
     65          1           0       -1.049869    4.072205    1.346174
     66          1           0       -0.700064    4.178774   -0.394645
     67          1           0        1.527709    3.955688    0.448079
     68          1           0        1.003616    2.954164    1.818498
     69          1           0       -0.432856    1.119590    2.352139
     70          1           0       -1.331856   -0.136984    1.548582
 ---------------------------------------------------------------------
 Rotational constants (GHZ):           0.2148589           0.0699651           0.0646261
 Standard basis: 6-31G(d) (6D, 7F)
 There are   569 symmetry adapted cartesian basis functions of A   symmetry.
 There are   569 symmetry adapted basis functions of A   symmetry.
   569 basis functions,  1072 primitive gaussians,   569 cartesian basis functions
   122 alpha electrons      122 beta electrons
       nuclear repulsion energy      3640.5500882996 Hartrees.
 NAtoms=   70 NActive=   70 NUniq=   70 SFac= 1.00D+00 NAtFMM=   60 NAOKFM=T Big=T
 Integral buffers will be    131072 words long.
 Raffenetti 2 integral format.
 Two-electron integral symmetry is turned on.
 Nuclear repulsion after empirical dispersion term =     3640.3867973207 Hartrees.
 Using the following non-standard input for PCM:
 radii=UA0
 --- end of non-standard input.
 ------------------------------------------------------------------------------
 United Atom Topological Model (UA0  parameters set).
  Nord Group  Hybr  Charge Alpha Radius          Bonded to
    1   CH3   *     0.00   1.10  2.525   O2   [s]
    2   O     *     0.00   1.10  1.750   C1   [s]  C32  [s]
    4   CH3   *     0.00   1.10  2.525   C6   [s]
    5   CH3   *     0.00   1.10  2.525   C6   [s]
    6   CH    *     0.00   1.10  2.125   C4   [s]  C5   [s]  C26  [s]
    7   CH3   *     0.00   1.10  2.525   C9   [s]
    8   CH2   *     0.00   1.10  2.325   C9   [s]  C25  [s]
    9   C     *     0.00   1.10  1.925   C7   [s]  C8   [s]  O24  [s]  C28  [s]
   12   OH    *     0.00   1.10  1.850   C35  [s]
   14   CH    *     0.00   1.10  2.125   C15  [s]  C20  [s]
   15   CH    *     0.00   1.10  2.125   C14  [s]  C16  [s]
   16   CH    *     0.00   1.10  2.125   C15  [s]  C17  [s]
   17   CH    *     0.00   1.10  2.125   C16  [s]  C18  [s]
   18   CH    *     0.00   1.10  2.125   C17  [s]  C20  [s]
   19   O     *     0.00   1.10  1.750   C23  [d]
   20   C     *     0.00   1.10  1.925   C14  [s]  C18  [s]  C21  [s]
   21   CH    *     0.00   1.10  2.125   C20  [s]  C22  [d]
   22   CH    *     0.00   1.10  2.125   C21  [d]  C23  [s]
   23   C     *     0.00   1.10  1.925   O19  [d]  C22  [s]  N29  [s]
   24   O     *     0.00   1.10  1.750   C9   [s]  C32  [s]
   25   CH    *     0.00   1.10  2.125   C8   [s]  C26  [s]  C36  [s]
   26   CH    *     0.00   1.10  2.125   C6   [s]  C25  [s]  C27  [s]
   27   CH2   *     0.00   1.10  2.325   C26  [s]  C28  [s]
   28   CH    *     0.00   1.10  2.125   C9   [s]  C27  [s]  C37  [s]
   29   N     *     0.00   1.10  1.830   C23  [s]  C30  [s]  C34  [s]
   30   CH2   *     0.00   1.10  2.325   N29  [s]  C31  [s]
   31   CH2   *     0.00   1.10  2.325   C30  [s]  C35  [s]
   32   C     *     0.00   1.10  1.925   O2   [s]  O24  [s]  C33  [s]  C37  [s]
   33   CH2   *     0.00   1.10  2.325   C32  [s]  C34  [s]
   34   CH    *     0.00   1.10  2.125   N29  [s]  C33  [s]  C35  [s]
   35   C     *     0.00   1.10  1.925   O12  [s]  C31  [s]  C34  [s]  C36  [s]
   36   CH    *     0.00   1.10  2.125   C25  [s]  C35  [s]  C37  [s]
   37   CH    *     0.00   1.10  2.125   C28  [s]  C32  [s]  C36  [s]
 ------------------------------------------------------------------------------
 Polarizable Continuum Model (PCM)
 =================================
 Model                : PCM.
 Atomic radii         : UA0 (Simple United Atom Topological Model).
 Polarization charges : Total charges.
 Charge compensation  : None.
 Solution method      : On-the-fly selection.
 Cavity type          : Scaled VdW (van der Waals Surface) (Alpha=1.100).
 Cavity algorithm     : GePol (No added spheres)
                        Default sphere list used, NSphG=   33.
                        Lebedev-Laikov grids with approx.  5.0 points / Ang**2.
                        Smoothing algorithm: York/Karplus (Gamma=1.0000).
                        Polarization charges: spherical gaussians, with
                                              point-specific exponents (IZeta= 3).
                        Self-potential: point-specific (ISelfS= 7).
                        Self-field    : sphere-specific E.n sum rule (ISelfD= 2).
 1st derivatives      : Analytical E(r).r(x)/FMM algorithm (CHGder, D1EAlg=3).
                        Cavity 1st derivative terms included.
 Solvent              : Methanol, Eps=  32.613000 Eps(inf)=   1.765709
 ------------------------------------------------------------------------------
 One-electron integrals computed using PRISM.
 NBasis=   569 RedAO= T EigKep=  4.61D-04  NBF=   569
 NBsUse=   569 1.00D-06 EigRej= -1.00D+00 NBFU=   569
 ExpMin= 1.61D-01 ExpMax= 5.48D+03 ExpMxC= 8.25D+02 IAcc=3 IRadAn=         5 AccDes= 0.00D+00
 Harris functional with IExCor=  402 and IRadAn=       5 diagonalized for initial guess.
 HarFok:  IExCor=  402 AccDes= 0.00D+00 IRadAn=         5 IDoV= 1 UseB2=F ITyADJ=14
 ICtDFT=  3500011 ScaDFX=  1.000000  1.000000  1.000000  1.000000
 FoFCou: FMM=F IPFlag=           0 FMFlag=      100000 FMFlg1=        2001
         NFxFlg=           0 DoJE=T BraDBF=F KetDBF=T FulRan=T
         wScrn=  0.000000 ICntrl=       500 IOpCl=  0 I1Cent=   200000004 NGrid=           0
         NMat0=    1 NMatS0=      1 NMatT0=    0 NMatD0=    1 NMtDS0=    0 NMtDT0=    0
 Petite list used in FoFCou.
 Requested convergence on RMS density matrix=1.00D-08 within 128 cycles.
 Requested convergence on MAX density matrix=1.00D-06.
 Requested convergence on             energy=1.00D-06.
 No special actions if energy rises.
 Inv3:  Mode=1 IEnd=    44467500.
 Iteration    1 A*A^-1 deviation from unit magnitude is 3.44D-15 for    614.
 Iteration    1 A*A^-1 deviation from orthogonality  is 1.70D-15 for   1678    681.
 Iteration    1 A^-1*A deviation from unit magnitude is 3.44D-15 for   1962.
 Iteration    1 A^-1*A deviation from orthogonality  is 7.29D-14 for    438    412.
 Error on total polarization charges =  0.00775
 SCF Done:  E(RB3LYP) =  -1445.07719665     A.U. after   13 cycles
            NFock= 13  Conv=0.67D-08     -V/T= 2.0094

 **********************************************************************

            Population analysis using the SCF density.

 **********************************************************************

 Orbital symmetries:
       Occupied  (A) (A) (A) (A) (A) (A) (A) (A) (A) (A) (A) (A)
                 (A) (A) (A) (A) (A) (A) (A) (A) (A) (A) (A) (A)
                 (A) (A) (A) (A) (A) (A) (A) (A) (A) (A) (A) (A)
                 (A) (A) (A) (A) (A) (A) (A) (A) (A) (A) (A) (A)
                 (A) (A) (A) (A) (A) (A) (A) (A) (A) (A) (A) (A)
                 (A) (A) (A) (A) (A) (A) (A) (A) (A) (A) (A) (A)
                 (A) (A) (A) (A) (A) (A) (A) (A) (A) (A) (A) (A)
                 (A) (A) (A) (A) (A) (A) (A) (A) (A) (A) (A) (A)
                 (A) (A) (A) (A) (A) (A) (A) (A) (A) (A) (A) (A)
                 (A) (A) (A) (A) (A) (A) (A) (A) (A) (A) (A) (A)
                 (A) (A)
       Virtual   (A) (A) (A) (A) (A) (A) (A) (A) (A) (A) (A) (A)
                 (A) (A) (A) (A) (A) (A) (A) (A) (A) (A) (A) (A)
                 (A) (A) (A) (A) (A) (A) (A) (A) (A) (A) (A) (A)
                 (A) (A) (A) (A) (A) (A) (A) (A) (A) (A) (A) (A)
                 (A) (A) (A) (A) (A) (A) (A) (A) (A) (A) (A) (A)
                 (A) (A) (A) (A) (A) (A) (A) (A) (A) (A) (A) (A)
                 (A) (A) (A) (A) (A) (A) (A) (A) (A) (A) (A) (A)
                 (A) (A) (A) (A) (A) (A) (A) (A) (A) (A) (A) (A)
                 (A) (A) (A) (A) (A) (A) (A) (A) (A) (A) (A) (A)
                 (A) (A) (A) (A) (A) (A) (A) (A) (A) (A) (A) (A)
                 (A) (A) (A) (A) (A) (A) (A) (A) (A) (A) (A) (A)
                 (A) (A) (A) (A) (A) (A) (A) (A) (A) (A) (A) (A)
                 (A) (A) (A) (A) (A) (A) (A) (A) (A) (A) (A) (A)
                 (A) (A) (A) (A) (A) (A) (A) (A) (A) (A) (A) (A)
                 (A) (A) (A) (A) (A) (A) (A) (A) (A) (A) (A) (A)
                 (A) (A) (A) (A) (A) (A) (A) (A) (A) (A) (A) (A)
                 (A) (A) (A) (A) (A) (A) (A) (A) (A) (A) (A) (A)
                 (A) (A) (A) (A) (A) (A) (A) (A) (A) (A) (A) (A)
                 (A) (A) (A) (A) (A) (A) (A) (A) (A) (A) (A) (A)
                 (A) (A) (A) (A) (A) (A) (A) (A) (A) (A) (A) (A)
                 (A) (A) (A) (A) (A) (A) (A) (A) (A) (A) (A) (A)
                 (A) (A) (A) (A) (A) (A) (A) (A) (A) (A) (A) (A)
                 (A) (A) (A) (A) (A) (A) (A) (A) (A) (A) (A) (A)
                 (A) (A) (A) (A) (A) (A) (A) (A) (A) (A) (A) (A)
                 (A) (A) (A) (A) (A) (A) (A) (A) (A) (A) (A) (A)
                 (A) (A) (A) (A) (A) (A) (A) (A) (A) (A) (A) (A)
                 (A) (A) (A) (A) (A) (A) (A) (A) (A) (A) (A) (A)
                 (A) (A) (A) (A) (A) (A) (A) (A) (A) (A) (A) (A)
                 (A) (A) (A) (A) (A) (A) (A) (A) (A) (A) (A) (A)
                 (A) (A) (A) (A) (A) (A) (A) (A) (A) (A) (A) (A)
                 (A) (A) (A) (A) (A) (A) (A) (A) (A) (A) (A) (A)
                 (A) (A) (A) (A) (A) (A) (A) (A) (A) (A) (A) (A)
                 (A) (A) (A) (A) (A) (A) (A) (A) (A) (A) (A) (A)
                 (A) (A) (A) (A) (A) (A) (A) (A) (A) (A) (A) (A)
                 (A) (A) (A) (A) (A) (A) (A) (A) (A) (A) (A) (A)
                 (A) (A) (A) (A) (A) (A) (A) (A) (A) (A) (A) (A)
                 (A) (A) (A) (A) (A) (A) (A) (A) (A) (A) (A) (A)
                 (A) (A) (A)
 The electronic state is 1-A.
 Alpha  occ. eigenvalues --  -19.14653 -19.14644 -19.14460 -19.10654 -14.35735
 Alpha  occ. eigenvalues --  -10.28329 -10.28236 -10.24875 -10.23420 -10.23126
 Alpha  occ. eigenvalues --  -10.22004 -10.21229 -10.20203 -10.20078 -10.19204
 Alpha  occ. eigenvalues --  -10.19155 -10.19089 -10.19085 -10.19057 -10.19042
 Alpha  occ. eigenvalues --  -10.19002 -10.18810 -10.18751 -10.18681 -10.18267
 Alpha  occ. eigenvalues --  -10.18134 -10.17955 -10.17854 -10.17484 -10.17192
 Alpha  occ. eigenvalues --  -10.17055 -10.16754 -10.16699  -1.06258  -1.02998
 Alpha  occ. eigenvalues --   -1.02051  -1.00191  -0.93833  -0.86017  -0.85639
 Alpha  occ. eigenvalues --   -0.81443  -0.79988  -0.79381  -0.77896  -0.76189
 Alpha  occ. eigenvalues --   -0.75102  -0.74543  -0.73528  -0.72884  -0.71440
 Alpha  occ. eigenvalues --   -0.68348  -0.67705  -0.67525  -0.65550  -0.62519
 Alpha  occ. eigenvalues --   -0.61495  -0.60937  -0.60410  -0.59761  -0.58628
 Alpha  occ. eigenvalues --   -0.57051  -0.55621  -0.54184  -0.53396  -0.51967
 Alpha  occ. eigenvalues --   -0.51756  -0.51187  -0.50814  -0.49876  -0.48071
 Alpha  occ. eigenvalues --   -0.47826  -0.46925  -0.46249  -0.45717  -0.45233
 Alpha  occ. eigenvalues --   -0.44713  -0.44185  -0.43760  -0.43319  -0.42938
 Alpha  occ. eigenvalues --   -0.42523  -0.42174  -0.41959  -0.41832  -0.41537
 Alpha  occ. eigenvalues --   -0.40708  -0.40619  -0.39956  -0.39524  -0.39340
 Alpha  occ. eigenvalues --   -0.38775  -0.38187  -0.37974  -0.37735  -0.37619
 Alpha  occ. eigenvalues --   -0.37474  -0.36736  -0.36408  -0.36024  -0.35364
 Alpha  occ. eigenvalues --   -0.35280  -0.34638  -0.34342  -0.34236  -0.34153
 Alpha  occ. eigenvalues --   -0.33961  -0.33124  -0.32621  -0.32165  -0.31608
 Alpha  occ. eigenvalues --   -0.29509  -0.29284  -0.28972  -0.28499  -0.27904
 Alpha  occ. eigenvalues --   -0.26706  -0.26637  -0.25276  -0.25115  -0.24988
 Alpha  occ. eigenvalues --   -0.23669  -0.22801
 Alpha virt. eigenvalues --   -0.04961  -0.00360   0.02109   0.06043   0.07919
 Alpha virt. eigenvalues --    0.08273   0.08971   0.09472   0.10104   0.10380
 Alpha virt. eigenvalues --    0.10730   0.11717   0.11992   0.12325   0.12668
 Alpha virt. eigenvalues --    0.12935   0.13203   0.13979   0.14372   0.14627
 Alpha virt. eigenvalues --    0.15048   0.15260   0.15386   0.15674   0.15933
 Alpha virt. eigenvalues --    0.16174   0.16311   0.16555   0.16967   0.17301
 Alpha virt. eigenvalues --    0.17661   0.18013   0.18210   0.18636   0.18712
 Alpha virt. eigenvalues --    0.18987   0.19251   0.19586   0.19943   0.20022
 Alpha virt. eigenvalues --    0.20173   0.20685   0.21482   0.21884   0.22028
 Alpha virt. eigenvalues --    0.22840   0.23032   0.23324   0.23795   0.24372
 Alpha virt. eigenvalues --    0.24785   0.25298   0.25524   0.25784   0.26136
 Alpha virt. eigenvalues --    0.26841   0.27014   0.27502   0.27635   0.28188
 Alpha virt. eigenvalues --    0.28908   0.30133   0.30353   0.30776   0.30922
 Alpha virt. eigenvalues --    0.31446   0.31580   0.32258   0.32813   0.32941
 Alpha virt. eigenvalues --    0.35022   0.35717   0.36517   0.38693   0.39002
 Alpha virt. eigenvalues --    0.39991   0.41296   0.43283   0.47767   0.49809
 Alpha virt. eigenvalues --    0.49999   0.50898   0.51595   0.51947   0.52214
 Alpha virt. eigenvalues --    0.52652   0.52866   0.53501   0.53679   0.54309
 Alpha virt. eigenvalues --    0.54911   0.55368   0.55710   0.56796   0.57078
 Alpha virt. eigenvalues --    0.57495   0.57565   0.57906   0.58280   0.58466
 Alpha virt. eigenvalues --    0.58993   0.59544   0.59874   0.60201   0.60278
 Alpha virt. eigenvalues --    0.60544   0.61311   0.61729   0.61829   0.62791
 Alpha virt. eigenvalues --    0.62926   0.63416   0.63624   0.63790   0.64380
 Alpha virt. eigenvalues --    0.65080   0.66071   0.66310   0.66860   0.67020
 Alpha virt. eigenvalues --    0.67682   0.68834   0.69141   0.69202   0.70430
 Alpha virt. eigenvalues --    0.70644   0.71642   0.72184   0.73248   0.73427
 Alpha virt. eigenvalues --    0.74539   0.75083   0.76015   0.76557   0.77155
 Alpha virt. eigenvalues --    0.78779   0.78995   0.79812   0.79901   0.80859
 Alpha virt. eigenvalues --    0.81592   0.81966   0.82739   0.83015   0.83586
 Alpha virt. eigenvalues --    0.83864   0.84251   0.84482   0.84607   0.85093
 Alpha virt. eigenvalues --    0.85152   0.85327   0.85855   0.86120   0.86519
 Alpha virt. eigenvalues --    0.86910   0.87410   0.87671   0.87997   0.88705
 Alpha virt. eigenvalues --    0.89338   0.89563   0.89899   0.90334   0.90728
 Alpha virt. eigenvalues --    0.90961   0.91714   0.91818   0.92232   0.92363
 Alpha virt. eigenvalues --    0.92642   0.93156   0.93440   0.93645   0.94044
 Alpha virt. eigenvalues --    0.94834   0.95150   0.95424   0.95564   0.96683
 Alpha virt. eigenvalues --    0.97252   0.97347   0.97598   0.97698   0.98792
 Alpha virt. eigenvalues --    0.99138   0.99414   1.00191   1.00422   1.00925
 Alpha virt. eigenvalues --    1.01696   1.01939   1.02772   1.03498   1.04008
 Alpha virt. eigenvalues --    1.04295   1.05664   1.06397   1.07674   1.08314
 Alpha virt. eigenvalues --    1.09710   1.10736   1.11324   1.12487   1.13306
 Alpha virt. eigenvalues --    1.13742   1.14180   1.14964   1.17241   1.17709
 Alpha virt. eigenvalues --    1.18730   1.18966   1.19646   1.21299   1.23335
 Alpha virt. eigenvalues --    1.25303   1.25958   1.27108   1.28388   1.29228
 Alpha virt. eigenvalues --    1.30999   1.31492   1.33012   1.33176   1.33977
 Alpha virt. eigenvalues --    1.36123   1.36838   1.39502   1.40153   1.40679
 Alpha virt. eigenvalues --    1.41931   1.42755   1.43684   1.44241   1.45923
 Alpha virt. eigenvalues --    1.46083   1.46785   1.47181   1.48792   1.49198
 Alpha virt. eigenvalues --    1.49685   1.50287   1.50711   1.51259   1.53884
 Alpha virt. eigenvalues --    1.54879   1.55792   1.56482   1.58976   1.60076
 Alpha virt. eigenvalues --    1.61433   1.62088   1.64347   1.64594   1.65028
 Alpha virt. eigenvalues --    1.66148   1.66506   1.69578   1.71044   1.72494
 Alpha virt. eigenvalues --    1.73193   1.73235   1.74369   1.75352   1.75787
 Alpha virt. eigenvalues --    1.77531   1.77724   1.78465   1.78893   1.79386
 Alpha virt. eigenvalues --    1.80370   1.80859   1.81405   1.81931   1.83019
 Alpha virt. eigenvalues --    1.83533   1.83627   1.84842   1.85596   1.85876
 Alpha virt. eigenvalues --    1.86498   1.88260   1.88895   1.89221   1.89908
 Alpha virt. eigenvalues --    1.90484   1.91233   1.91499   1.92474   1.92803
 Alpha virt. eigenvalues --    1.94038   1.94292   1.94909   1.95885   1.96379
 Alpha virt. eigenvalues --    1.97077   1.97516   1.98027   1.99800   2.00086
 Alpha virt. eigenvalues --    2.00846   2.01326   2.01597   2.02396   2.03135
 Alpha virt. eigenvalues --    2.03668   2.03943   2.04582   2.05346   2.06146
 Alpha virt. eigenvalues --    2.07273   2.07676   2.08227   2.09201   2.09664
 Alpha virt. eigenvalues --    2.10391   2.11175   2.11815   2.12738   2.13725
 Alpha virt. eigenvalues --    2.14084   2.14187   2.14874   2.15929   2.16372
 Alpha virt. eigenvalues --    2.17230   2.18985   2.20320   2.20659   2.21228
 Alpha virt. eigenvalues --    2.21900   2.22711   2.22870   2.23817   2.24734
 Alpha virt. eigenvalues --    2.25432   2.26231   2.26854   2.27621   2.28333
 Alpha virt. eigenvalues --    2.28853   2.29798   2.30433   2.30693   2.31432
 Alpha virt. eigenvalues --    2.32331   2.33405   2.33760   2.35116   2.36237
 Alpha virt. eigenvalues --    2.37850   2.38621   2.40900   2.40998   2.41714
 Alpha virt. eigenvalues --    2.43425   2.43749   2.45756   2.46046   2.46566
 Alpha virt. eigenvalues --    2.48198   2.48846   2.50452   2.51229   2.52616
 Alpha virt. eigenvalues --    2.53217   2.54796   2.55527   2.56613   2.57710
 Alpha virt. eigenvalues --    2.58198   2.58685   2.60491   2.60909   2.62688
 Alpha virt. eigenvalues --    2.64074   2.64829   2.66007   2.67007   2.68145
 Alpha virt. eigenvalues --    2.69096   2.69689   2.71013   2.72299   2.73650
 Alpha virt. eigenvalues --    2.74189   2.74293   2.74594   2.75911   2.76411
 Alpha virt. eigenvalues --    2.78165   2.81148   2.82381   2.83212   2.84931
 Alpha virt. eigenvalues --    2.85348   2.86492   2.86850   2.89354   2.89956
 Alpha virt. eigenvalues --    2.92001   2.92740   2.94982   2.97746   3.00557
 Alpha virt. eigenvalues --    3.01092   3.07278   3.09249   3.11084   3.12690
 Alpha virt. eigenvalues --    3.17785   3.21383   3.26872   3.42131   3.94077
 Alpha virt. eigenvalues --    4.04822   4.08689   4.10115   4.11300   4.11900
 Alpha virt. eigenvalues --    4.15079   4.15817   4.18016   4.21318   4.25036
 Alpha virt. eigenvalues --    4.26762   4.29265   4.29853   4.29943   4.32730
 Alpha virt. eigenvalues --    4.34116   4.36114   4.40794   4.42045   4.45792
 Alpha virt. eigenvalues --    4.51210   4.52607   4.57632   4.65955   4.67100
 Alpha virt. eigenvalues --    4.69840   4.72440   4.78057   4.83407   4.85682
 Alpha virt. eigenvalues --    4.94361   5.05592
          Condensed to atoms (all electrons):
 Mulliken charges:
               1
     1  C   -0.219046
     2  O   -0.528584
     3  H    0.120939
     4  C   -0.452277
     5  C   -0.455124
     6  C   -0.087943
     7  C   -0.481992
     8  C   -0.308853
     9  C    0.344208
    10  H    0.142815
    11  H    0.150735
    12  O   -0.682134
    13  H    0.182480
    14  C   -0.187435
    15  C   -0.148552
    16  C   -0.140356
    17  C   -0.148105
    18  C   -0.195667
    19  O   -0.588306
    20  C    0.129162
    21  C   -0.163235
    22  C   -0.214510
    23  C    0.587076
    24  O   -0.575976
    25  C   -0.113873
    26  C   -0.073295
    27  C   -0.299374
    28  C   -0.127056
    29  N   -0.474015
    30  C   -0.098083
    31  C   -0.351310
    32  C    0.582098
    33  C   -0.317743
    34  C    0.004132
    35  C    0.305892
    36  C   -0.154955
    37  C   -0.186954
    38  H    0.156620
    39  H    0.141732
    40  H    0.154948
    41  H    0.141315
    42  H    0.139466
    43  H    0.146414
    44  H    0.147124
    45  H    0.140070
    46  H    0.139525
    47  H    0.128912
    48  H    0.148731
    49  H    0.150071
    50  H    0.152017
    51  H    0.152984
    52  H    0.143711
    53  H    0.429185
    54  H    0.151805
    55  H    0.152500
    56  H    0.150984
    57  H    0.152149
    58  H    0.152865
    59  H    0.167896
    60  H    0.163923
    61  H    0.130053
    62  H    0.143971
    63  H    0.142217
    64  H    0.141209
    65  H    0.157955
    66  H    0.157574
    67  H    0.161054
    68  H    0.161950
    69  H    0.163800
    70  H    0.160482
 Sum of Mulliken charges =  -0.00000
 Mulliken charges with hydrogens summed into heavy atoms:
               1
     1  C    0.234254
     2  O   -0.528584
     4  C   -0.025083
     5  C   -0.028405
     6  C    0.040969
     7  C   -0.031172
     8  C   -0.012158
     9  C    0.344208
    12  O   -0.252949
    14  C   -0.035630
    15  C    0.003949
    16  C    0.010628
    17  C    0.004044
    18  C   -0.042802
    19  O   -0.588306
    20  C    0.129162
    21  C    0.004661
    22  C   -0.050587
    23  C    0.587076
    24  O   -0.575976
    25  C    0.016180
    26  C    0.047644
    27  C   -0.013185
    28  C    0.014153
    29  N   -0.474015
    30  C    0.217446
    31  C   -0.028306
    32  C    0.582098
    33  C    0.006539
    34  C    0.186611
    35  C    0.305892
    36  C   -0.012140
    37  C   -0.036219
 Electronic spatial extent (au):  <R**2>=          17681.0157
 Charge=             -0.0000 electrons
 Dipole moment (field-independent basis, Debye):
    X=              5.3527    Y=             -2.5944    Z=              0.1181  Tot=              5.9495
 Quadrupole moment (field-independent basis, Debye-Ang):
   XX=           -185.9654   YY=           -198.0176   ZZ=           -197.5263
   XY=             28.1313   XZ=             -4.2675   YZ=              4.1878
 Traceless Quadrupole moment (field-independent basis, Debye-Ang):
   XX=              7.8710   YY=             -4.1811   ZZ=             -3.6899
   XY=             28.1313   XZ=             -4.2675   YZ=              4.1878
 Octapole moment (field-independent basis, Debye-Ang**2):
  XXX=            -44.5419  YYY=            -29.4327  ZZZ=             14.7263  XYY=             74.6722
  XXY=            -89.1389  XXZ=             15.0858  XZZ=             -1.0987  YZZ=             -7.5619
  YYZ=             -5.0591  XYZ=            -13.3483
 Hexadecapole moment (field-independent basis, Debye-Ang**3):
 XXXX=         -16441.4365 YYYY=          -4096.7623 ZZZZ=          -2591.0003 XXXY=            533.7105
 XXXZ=           -201.6033 YYYX=            378.5563 YYYZ=            -30.6487 ZZZX=            -54.6961
 ZZZY=            -34.6834 XXYY=          -3547.5113 XXZZ=          -3381.4775 YYZZ=          -1031.3383
 XXYZ=             79.2168 YYXZ=             49.6363 ZZXY=             34.9808
 N-N= 3.640386797321D+03 E-N=-1.063929901572D+04  KE= 1.431604944125D+03
 D1PCM: PCM CHGder 1st derivatives, ID1Alg=3 FixD1E=F DoIter=F DoCFld=F I1PDM=0.
 Calling FoFJK, ICntrl=      2127 FMM=T ISym2X=0 I1Cent= 0 IOpClX= 0 NMat=1 NMatS=1 NMatT=0.
 ***** Axes restored to original set *****
 -------------------------------------------------------------------
 Center     Atomic                   Forces (Hartrees/Bohr)
 Number     Number              X              Y              Z
 -------------------------------------------------------------------
      1        6          -0.002296634   -0.000491613   -0.000976550
      2        8           0.000328729    0.004092435    0.003634427
      3        1           0.002366622    0.000847681    0.001299965
      4        6          -0.001705594   -0.003920612   -0.001266179
      5        6           0.003164053   -0.004007563    0.001500329
      6        6           0.002298313    0.005246625   -0.002323533
      7        6           0.000744051   -0.007403895   -0.002120853
      8        6           0.000234980    0.012505227    0.002538275
      9        6          -0.002930926   -0.006643896    0.013159622
     10        1           0.000725041   -0.001423417    0.000024565
     11        1           0.003301221   -0.004328776   -0.000916651
     12        8           0.010526963   -0.013986692    0.000576380
     13        1          -0.003730904    0.000636292    0.000259126
     14        6          -0.002938482   -0.005019879    0.006452452
     15        6          -0.001784118    0.004132310   -0.000810133
     16        6           0.000597913   -0.003480737    0.001548724
     17        6          -0.000642538    0.002556663   -0.003660758
     18        6           0.004385215   -0.008176854    0.000147251
     19        8           0.005647796    0.010774342   -0.009499129
     20        6           0.003918981    0.004518056   -0.001727967
     21        6          -0.003415575   -0.005781096    0.004820647
     22        6           0.003063233    0.006285779   -0.004249079
     23        6          -0.017035250   -0.005297360    0.013881788
     24        8           0.000943326    0.002729262   -0.017708253
     25        6          -0.005584307   -0.000349811   -0.000212567
     26        6           0.003133050    0.002014553    0.004531702
     27        6          -0.002898059    0.000040464   -0.002707154
     28        6          -0.000433158    0.003789349    0.001863453
     29        7           0.008158061   -0.004050705    0.001643636
     30        6           0.006198386    0.006210743   -0.008072193
     31        6           0.001923602   -0.004840841   -0.004869895
     32        6          -0.001612225   -0.001701192   -0.004662309
     33        6           0.000430616   -0.009152788    0.001939095
     34        6           0.010910489    0.000054479    0.002666123
     35        6          -0.004058556    0.012144464    0.000341740
     36        6          -0.004203049    0.002595510    0.007665045
     37        6          -0.008820726   -0.002425760   -0.003431866
     38        1          -0.001708358    0.003478645   -0.000360535
     39        1           0.003575537   -0.002655218    0.000182366
     40        1           0.002654170    0.000631920    0.001413911
     41        1           0.000430251    0.000236339    0.000312496
     42        1           0.000567926    0.000987886   -0.000708805
     43        1          -0.001098109    0.000185646   -0.001401560
     44        1           0.001853473    0.001098939   -0.000827811
     45        1           0.000477531    0.001068396   -0.000723746
     46        1          -0.000967049    0.000599150   -0.000152734
     47        1           0.000319207   -0.002698833   -0.000926477
     48        1          -0.001194503    0.001633341   -0.001306944
     49        1           0.000916413    0.002145977    0.001702966
     50        1           0.000700952    0.001502429   -0.000112867
     51        1          -0.003100805   -0.004207978   -0.001559005
[...]
 00000451,-0.00010449,-0.00021404,-0.00002959,0.00000150,0.00000343,-0.
 00000480,0.00000104,-0.00000035,0.00001100,-0.00001361,-0.00000278,0.0
 0000937,-0.00001345,0.00001258,-0.00001090,0.00003773,0.00001040,0.000
 03250,-0.00003086,0.00001210,0.00012013,-0.00006310,-0.00008005,-0.000
 05165,0.00033544,-0.00036917,-0.00001881,0.00040111,0.00007667,0.00026
 959,-0.00186086,0.00221491,-0.00998338,0.00017284,-0.00008877,-0.00003
 622,0.00000349,-0.00000215,-0.00000026,0.00000393,-0.00000222,-0.00000
 111,0.00000004,-0.00000516,0.00000327,-0.00000180,0.00000002,0.0000008
 9,-0.00000303,-0.00000512,0.00000516,-0.00000262,-0.00007500,-0.000055
 93,0.00000397,0.00000599,0.00000346,-0.00000516,0.00000975,0.00000354,
 0.00001958,-0.00000542,-0.00000512,-0.00008267,-0.00002288,0.00006210,
 -0.00010524,-0.00010763,0.00029520,-0.00007674,-0.00020844,0.00001361,
 0.00002670,0.00004027,0.00005172,0.00001723,-0.00005869,0.00001789,0.0
 0029886,0.00007514,0.00005317,0.00000552,0.00049002,-0.00006716,0.0106
 9899,0.00459700,0.00760225,-0.11777198,-0.05340970,-0.16068978,0.00028
 816,0.00044579,-0.00024437,-0.00024150,-0.00015657,-0.00042004,-0.0001
 1557,-0.00053776,0.00015119,-0.01974131,-0.01360080,-0.01447822,-0.000
 46297,0.00008393,0.00086047,0.00006578,0.00020836,-0.00039981,-0.00001
 144,-0.00002292,-0.00000611,0.00001298,-0.00000908,0.00000144,0.000010
 05,-0.00001427,0.00000721,-0.00000399,0.00000455,0.00000375,-0.0000003
 4,0.00000195,-0.00000085,0.00000525,-0.00000063,-0.00000145,-0.0000006
 6,-0.00000258,0.00000223,-0.00000022,0.00000369,-0.00000050,0.00000241
 ,0.00000366,0.00000379,0.00000212,-0.00000003,-0.00000151,0.00000300,0
 .00000258,-0.00000586,-0.00000508,-0.00002087,0.00001387,-0.00000905,-
 0.00000229,0.00001122,0.00000778,-0.00004774,0.00001656,0.00001821,-0.
 00002629,0.00003005,-0.00002777,0.00120513,0.00102318,0.00000027,0.000
 00036,-0.00000156,-0.00000054,-0.00000104,0.00000061,0.00000011,-0.000
 00054,0.00000012,0.00000089,-0.00000111,0.00000005,-0.00000050,0.00000
 053,-0.00000045,-0.00000659,-0.00000566,-0.00000700,0.00000266,-0.0000
 0261,-0.00000963,-0.00011848,0.00012485,0.00024496,-0.00001538,0.00002
 605,0.00002630,0.00000435,0.00001686,-0.00000304,-0.00000663,-0.000011
 11,0.00000308,-0.00033219,0.00065137,0.00111370,0.00280816,-0.00098225
 ,0.00006428,-0.00076179,-0.00065911,-0.00092332,0.12650996,0.06035780,
 0.17406127,0.00004432,-0.00041565,-0.00000604,0.00133278,0.00090430,-0
 .00070253,-0.00000805,0.00001748,-0.00000048,0.00000433,0.00000123,0.0
 0000005,-0.00000319,-0.00000125,0.00000274,0.00000622,-0.00000685,-0.0
 0000184,-0.00040414,0.00052956,0.00044558,-0.00016045,0.00000191,0.000
 04127,0.00034730,-0.00215114,-0.00013827,0.00009489,0.00003636,-0.0000
 1372,-0.00030534,0.00027330,0.00002325,0.00002080,-0.00019992,0.000061
 60,-0.00214158,-0.00326762,-0.00159842,0.00001296,-0.00000671,-0.00000
 199,-0.00000625,0.00000371,0.00000289,0.00000268,0.00000258,-0.0000027
 7,-0.00000034,-0.00000080,0.00000133,0.00000008,0.00000362,-0.00000265
 ,0.00024743,-0.00001501,-0.00019246,0.00000207,-0.00001069,-0.00000804
 ,-0.00003287,-0.00010779,0.00008265,0.00009313,0.00008334,-0.00017756,
 -0.00080258,0.00044465,0.00015781,-0.00561164,0.00024760,0.00624656,0.
 00003457,-0.00004784,0.00006628,-0.00000093,-0.00001512,-0.00002642,-0
 .00001531,0.00007912,-0.00015063,0.00019476,-0.00028008,0.00001991,0.0
 0202096,0.00102404,-0.00026462,-0.00031440,-0.00058430,-0.00001630,0.0
 0008046,-0.00008709,-0.00019113,0.00579007,-0.01076271,0.02727205,-0.0
 5293352,0.01190537,-0.02935422,-0.00539891,0.00627497,-0.02050552,0.00
 009705,0.00066580,0.00030040,-0.00020016,-0.00012074,0.00001785,0.0009
 0569,0.00009906,-0.00082657,0.00001366,0.00001808,-0.00001144,-0.00010
 007,0.00000257,0.00005792,-0.00002133,0.00023049,0.00002734,-0.0000017
 7,0.00000259,0.00000327,-0.00000220,0.00000302,-0.00000044,0.00000259,
 -0.00000069,-0.00000133,-0.00000341,-0.00000352,-0.00000339,0.00000021
 ,0.00000278,-0.00000015,0.00000013,0.00000367,0.00000408,0.00000536,0.
 00000655,-0.00001189,0.00002135,0.00001242,-0.00003532,0.00003540,0.00
 000158,-0.00002289,-0.00014026,-0.00016363,0.00021788,0.00000535,-0.00
 004177,0.00000971,0.00004681,0.00007753,0.00005535,0.00002289,-0.00007
 383,0.00003986,-0.00000493,-0.00000504,0.00000518,0.00000034,0.0000002
 8,-0.00000042,-0.00000070,0.00000054,-0.00000031,-0.00000071,0.0000006
 8,-0.00000010,0.00000013,-0.00000016,0.00000016,-0.00002144,0.00003096
 ,0.00001615,0.00013166,-0.00017473,0.00012833,-0.00001229,0.00005092,-
 0.00000070,0.00003080,-0.00003206,-0.00001375,-0.00002928,0.00005351,0
 .00002134,-0.00001084,0.00002078,0.00000642,-0.00010866,-0.00014154,0.
 00004093,0.00004121,0.00000890,0.00000551,0.00004490,0.00002661,0.0001
 5105,0.00032779,0.00012666,0.00014604,0.05835199,-0.00011667,-0.000160
 38,0.00019009,-0.00037377,-0.00000317,-0.00025686,0.00000167,0.0000054
 3,-0.00000245,0.00000145,-0.00000084,0.00000540,-0.00000235,-0.0000013
 7,0.00000347,-0.00000138,0.00000177,-0.00000957,-0.00007049,0.00009114
 ,0.00004576,-0.00007648,0.00000328,0.00000558,0.00003220,-0.00033616,-
 0.00033605,0.00006033,0.00001411,-0.00000015,0.00004153,0.00004892,-0.
 00004030,0.00001583,-0.00004007,0.00031007,-0.00231130,-0.00219353,-0.
 00173307,-0.00000293,0.00000437,-0.00000096,0.00001559,-0.00000870,-0.
 00000458,-0.00000284,-0.00001421,0.00000937,-0.00000460,0.00000156,0.0
 0000175,-0.00000727,-0.00001231,0.00001230,0.00015188,0.00002541,-0.00
 019469,0.00000056,0.00001205,0.00000542,-0.00001743,0.00008382,-0.0000
 2260,0.00005841,-0.00006148,0.00017848,-0.00025457,0.00013352,0.000272
 73,-0.00074035,0.00175820,0.00110338,-0.00000485,0.00000955,-0.0000063
 5,-0.00000113,-0.00002050,0.00000714,-0.00003136,-0.00001025,-0.000036
 46,-0.00011054,0.00005121,0.00017854,0.00157595,0.00108685,-0.00024825
 ,-0.00029103,-0.00009615,0.00008537,-0.00042425,-0.00139850,-0.0004668
 9,0.00130157,-0.00178776,0.00082388,0.01095388,-0.07840341,0.08130371,
 -0.00373504,0.00675653,-0.02114574,0.00020774,0.00083142,-0.00036546,-
 0.00005693,-0.00017835,-0.00000001,-0.00010223,0.00016552,-0.00011146,
 0.00000340,0.00002446,-0.00008432,0.00007934,-0.00016220,-0.00000778,0
 .00011229,0.00010756,-0.00012458,-0.00000209,0.00000293,0.00000271,-0.
 00000032,0.00000157,-0.00000045,0.00000285,-0.00000056,-0.00000112,-0.
 00000165,-0.00000062,-0.00000192,0.00000035,0.00000073,-0.00000049,0.0
 0000015,0.00000259,0.00000312,0.00000087,0.00000092,-0.00000193,-0.000
 00035,-0.00000941,-0.00000300,0.00000654,-0.00000884,-0.00000466,-0.00
 002002,-0.00003248,0.00002661,0.00002370,-0.00002934,0.00003107,0.0000
 2616,0.00001641,0.00001750,0.00006532,-0.00016356,0.00005250,-0.000000
 61,0.00000257,-0.00001037,-0.00000155,-0.00000169,0.00000187,0.0000008
 8,-0.00000154,0.00000069,0.00000273,-0.00000274,0.00000019,-0.00000046
 ,0.00000110,-0.00000120,-0.00000877,-0.00001504,-0.00002416,-0.0000884
 9,-0.00000983,-0.00009777,-0.00000226,0.00001406,0.00001395,-0.0000039
 1,0.00000340,0.00001362,-0.00001289,0.00002178,0.00000548,-0.00001579,
 -0.00001270,0.00000231,-0.00003390,-0.00007177,0.00001634,0.00009968,-
 0.00003121,0.00002367,0.00003392,0.00007482,0.00007333,0.00005838,-0.0
 0160002,0.00005458,-0.00866197,0.08472085,0.00005469,0.00054993,0.0001
 5965,-0.00098933,-0.00114282,0.00189238,0.00001356,-0.00001520,-0.0000
 0010,-0.00000507,-0.00000091,-0.00000144,0.00000147,0.00000317,-0.0000
 0279,-0.00000261,0.00000782,0.00000382,0.00030864,-0.00035467,-0.00026
 368,0.00003862,0.00004155,-0.00004163,-0.00047207,0.00141152,0.0006508
 1,0.00005898,-0.00006216,-0.00005681,0.00038697,-0.00031473,0.00010945
 ,0.00008195,-0.00046826,0.00024582,-0.00124145,-0.00215254,-0.00022178
 ,0.00001200,-0.00000243,-0.00000390,0.00000322,-0.00000328,-0.00000045
 ,-0.00000050,-0.00000544,0.00000349,-0.00000371,0.00000095,0.00000169,
 -0.00000391,-0.00000380,0.00000522,0.00004302,-0.00001932,-0.00011389,
 0.00000498,0.00000377,0.00000373,-0.00003930,-0.00002395,0.00003341,0.
 00009533,0.00001233,-0.00003653,-0.00057475,0.00026414,0.00034282,0.00
 355631,-0.00067026,-0.00240569,-0.00004250,0.00008501,-0.00004236,-0.0
 0000653,0.00000852,0.00002247,0.00000927,-0.00003800,0.00011281,0.0000
 8078,0.00009072,-0.00014188,0.00211395,0.00024861,0.00187274,-0.000702
 14,-0.00024949,0.00009625,-0.00075878,0.00053385,-0.00050981,-0.004215
 81,0.00477817,-0.01424279,-0.02783048,0.07989034,-0.27878776,-0.002296
 25,0.00516462,-0.01631286,-0.00048860,0.00105082,-0.00068018,0.0000722
 9,-0.00025085,-0.00000835,-0.00044801,0.00010599,0.00052113,0.00000412
 ,-0.00001071,0.00000151,0.00009520,0.00016195,-0.00017157,-0.00001068,
 -0.00013681,0.00003514,0.00000252,-0.00000286,-0.00000362,0.00000226,-
 0.00000322,0.00000057,-0.00000177,0.00000101,0.00000166,0.00000428,0.0
 0000285,0.00000465,-0.00000036,-0.00000277,0.00000053,0.00000046,-0.00
 000406,-0.00000438,-0.00000577,-0.00000707,0.00001052,-0.00001954,-0.0
 0000320,0.00002031,-0.00002760,-0.00000555,0.00002734,0.00007390,0.000
 10677,-0.00013185,0.00003858,-0.00000340,0.00009932,0.00001231,-0.0000
 6439,-0.00004271,0.00000962,-0.00009713,-0.00005072,-0.00000184,-0.000
 00275,0.,-0.00000024,-0.00000149,0.00000075,-0.00000022,-0.00000005,0.
 00000025,0.00000057,-0.00000078,-0.00000004,-0.00000066,0.00000021,-0.
 00000047,-0.00002311,0.00000982,-0.00000740,0.00001691,-0.00011242,0.0
 0003066,-0.00000174,-0.00002831,0.00003397,-0.00001743,0.00002179,0.00
 000426,0.00002598,-0.00003967,-0.00001590,0.00000282,-0.00001855,0.000
 00892,-0.00006486,-0.00012402,0.00008776,0.00009327,-0.00009651,0.0000
 1395,0.00034049,0.00013766,0.00041570,0.00074867,0.00019369,0.00088516
 ,0.03182242,-0.08802541,0.30418216,-0.00117753,0.00008252,0.00028482,0
 .00212635,-0.00133538,-0.00027166,0.00001642,0.00002433,0.00000198,-0.
 00000478,-0.00000883,0.00000872,-0.00001449,-0.00000127,0.00002358,0.0
 0003043,0.00001700,-0.00003267,0.00016631,-0.00007615,-0.00001501,0.00
 002798,-0.00001994,-0.00008048,-0.00028800,0.00031856,-0.00006687,0.00
 014111,0.00007142,0.00002546,-0.00002599,0.00009449,-0.00009271,0.0004
 1166,-0.00168772,-0.00047413,0.00085542,0.00095454,0.00044267,0.000006
 18,-0.00002142,-0.00000663,0.00002254,-0.00000688,0.00000219,0.0000022
 7,-0.00001309,0.00000856,-0.00000227,-0.00001094,0.00000779,-0.0000272
 6,-0.00001160,0.00002041,0.00006676,0.00017428,-0.00022781,0.00000962,
 -0.00003593,0.00000890,-0.00009517,0.00033993,-0.00006103,-0.00063442,
 -0.00018542,0.00000641,-0.00018734,-0.00029820,0.00024088,0.00184105,-
 0.00120010,-0.00237494,0.00009651,0.00004423,-0.00005488,-0.00005107,-
 0.00008994,-0.00006712,-0.00027343,-0.00060726,0.00049139,-0.00041440,
 0.00199124,0.00004657,0.00189890,0.00107766,-0.00021706,0.00030526,-0.
 00004213,0.00018776,0.00009369,0.00004985,-0.00011921,-0.01378686,0.03
 264346,0.00141673,-0.09568826,0.10092020,0.00592669,0.00842337,-0.0218
 9444,-0.00133615,-0.00338039,-0.00054968,-0.00153599,-0.00017880,-0.00
 042370,-0.00030579,-0.00378736,-0.00350582,0.00285483,0.00039573,-0.00
 022518,-0.00016351,-0.00055915,-0.00128128,-0.00096249,-0.00002316,-0.
 00010967,0.00014098,-0.00000094,0.00001102,0.00001053,0.00000261,0.000
 00694,0.00000012,0.00002280,-0.00000274,-0.00000380,0.00000039,0.00000
 030,-0.00000305,0.00000188,0.00000224,-0.00000182,0.00000480,0.0000095
 0,0.00001123,-0.00000371,0.00000073,-0.00000302,-0.00001886,-0.0000004
 3,0.00000021,-0.00001004,-0.00004248,0.00003834,0.00000695,0.00002832,
 -0.00003882,0.00003090,-0.00000211,0.00003208,0.00000013,-0.00002221,0
 .00000243,-0.00020849,-0.00015157,-0.00030797,0.00002231,0.00000991,-0
 .00000591,-0.00000130,-0.00000562,0.00000367,0.00000079,-0.00000348,-0
 .00000043,0.00000341,-0.00000478,0.00000100,-0.00000068,0.00000301,0.0
 0000039,0.00005186,-0.00001965,-0.00000593,-0.00064507,-0.00013992,-0.
 00076789,-0.00000263,0.00001535,0.00010646,-0.00015342,0.00022616,0.00
 019418,0.00001806,-0.00000584,-0.00003986,-0.00003805,-0.00006327,-0.0
 0001808,-0.00002986,0.00000474,-0.00002013,0.00001433,0.00010512,-0.00
 007020,-0.00000800,-0.00002696,0.00003917,-0.00004074,-0.00006671,0.00
 009983,-0.00161751,0.00265968,0.00006719,0.10626068,-0.00064200,-0.001
 33421,-0.00123462,0.00105054,0.00019695,-0.00014916,-0.00000369,0.0000
 0379,-0.00000159,-0.00000646,0.00000271,-0.00001967,0.00000261,0.00000
 544,-0.00000640,0.00002575,-0.00000687,0.00002570,-0.00000124,-0.00002
 245,-0.00000223,-0.00000706,-0.00001687,-0.00000620,0.00017888,0.00003
 566,-0.00027990,0.00009639,-0.00003761,-0.00001096,0.00001746,-0.00002
 709,0.00001538,0.00019619,-0.00181020,-0.00049952,0.00014237,0.0012293
 1,0.00033397,-0.00000623,0.00000712,-0.00001185,0.00004225,-0.00002345
 ,-0.00000948,-0.00000528,-0.00004066,0.00002370,-0.00001305,0.00000126
 ,0.00001398,-0.00003295,-0.00003277,0.00003617,-0.00026106,0.00017442,
 0.00001837,-0.00000362,0.00002720,0.00002604,0.00003871,0.00045246,-0.
 00012583,0.00031463,-0.00019259,0.00079209,-0.00020893,-0.00070112,0.0
 0010287,-0.00026475,0.00078177,-0.00025686,0.00005727,-0.00003088,0.00
 010588,-0.00002706,0.00002940,-0.00006312,-0.00007031,0.00001417,-0.00
 003045,-0.00027502,0.00012016,0.00023553,0.00018683,0.00162206,-0.0000
 0270,0.00039443,-0.00005014,0.00017197,0.00031294,0.00018878,-0.000041
 66,-0.00019196,0.00294238,0.00000592,0.10123591,-0.26439903,-0.0074665
 3,0.00844625,-0.02103915,-0.00201747,-0.00345515,0.00152470,-0.0012061
 4,-0.00026524,0.00009997,0.00020445,-0.00077747,0.00086072,0.00033411,
 -0.00037937,0.00021194,0.00016662,-0.00191063,-0.00077268,0.00015509,0
 .00008916,0.00002470,0.00003943,0.00000883,-0.00000682,-0.00000558,-0.
 00000009,-0.00000178,0.00000150,-0.00000087,0.00000172,0.00000252,0.00
 000477,-0.00000119,0.00000725,-0.00000144,0.00000088,0.00000197,0.0000
 0200,-0.00000593,-0.00000716,-0.00000042,0.00000071,-0.00000406,0.0000
 0608,0.00000350,0.00000020,-0.00000208,0.00000577,-0.00000823,0.000008
 29,0.00000426,-0.00000941,0.00001364,-0.00001882,0.00001613,0.00001266
 ,0.00002217,-0.00001949,-0.00019476,-0.00000001,-0.00026125,0.00000668
 ,0.00001299,-0.00002890,-0.00000398,-0.00000792,0.00000567,0.00000185,
 -0.00000449,0.00000172,0.00000697,-0.00000857,0.00000021,-0.00000453,0
 .00000274,-0.00000327,0.00000231,-0.00012368,-0.00008715,0.00005361,0.
 00033147,-0.00053800,-0.00002462,0.00001597,0.00001783,0.00000339,-0.0
 0000949,-0.00000015,-0.00000390,0.00000746,0.00001256,0.00003684,0.000
 01749,-0.00004082,-0.00004167,0.00004271,-0.00001944,-0.00006519,0.000
 13725,-0.00005150,-0.00007055,-0.00005534,-0.00000492,-0.00018809,-0.0
 0008296,-0.00010028,0.00410118,-0.00919971,-0.00031836,-0.10768694,0.2
 8890032,-0.00064645,0.00020241,0.00065366,-0.00108144,-0.00002041,-0.0
 0004149,-0.00001094,-0.00000268,0.00000061,-0.00000032,0.00000407,-0.0
 0001621,0.00000583,0.00000302,-0.00001103,0.00000828,-0.00001157,0.000
 02590,-0.00007845,0.00008807,0.00004440,-0.00003053,-0.00002147,0.0000
 7052,-0.00001132,-0.00023589,-0.00007504,0.00004568,-0.00005795,-0.000
 02372,0.00027822,-0.00022841,-0.00004104,0.00009410,-0.00138562,-0.000
 23154,0.00076856,0.00016570,0.00076531,-0.00002090,-0.00000016,0.00000
 204,0.00001655,-0.00000486,-0.00000375,-0.00000263,-0.00000962,0.00000
 749,0.00000135,-0.00000025,-0.00000268,-0.00000036,-0.00001343,0.00000
 757,-0.00007600,0.00009176,-0.00010483,0.00000544,0.00002658,0.0000079
 2,0.00007752,0.00012375,-0.00015817,-0.00033057,-0.00020459,0.00032214
 ,0.00019527,-0.00018561,0.00028972,-0.00084509,-0.00019980,0.00154193,
 0.00001701,-0.00004426,0.00008744,0.00001270,0.00005643,-0.00002350,0.
 00009661,0.00023246,-0.00020680,0.00038077,-0.00078912,0.00002745,0.00
 009402,0.00101334,-0.00034859,-0.00001247,-0.00000030,0.00009380,-0.00
 027951,0.00025975,-0.00051279,0.00709925,-0.01527990,-0.00194778,0.004
 77155,-0.00644700,-0.04867242,0.00690406,-0.01881001,-0.00259554,-0.00
 278977,0.00001301,-0.00095837,-0.00020408,0.00029290,0.00015022,0.0018
 7627,0.00120519,-0.00074367,0.00006303,0.00006946,-0.00013680,-0.00032
 549,-0.00042957,-0.00015115,0.00014870,0.00009989,-0.00010452,0.000004
 82,-0.00000761,-0.00000619,-0.00000140,-0.00000272,0.00000070,-0.00000
 853,0.00000121,0.00000206,0.00000135,-0.00000171,0.00000449,-0.0000015
 3,0.00000052,0.00000164,-0.00000073,-0.00000566,-0.00000680,0.00000257
 ,0.00000191,-0.00000462,0.00000698,0.00000133,-0.00000407,0.00000681,0
 .00001332,-0.00002153,-0.00002254,-0.00002694,0.00003725,-0.00001204,-
 0.00001392,-0.00001164,0.00001184,0.00003603,0.00000207,-0.00010851,-0
 .00011426,-0.00026150,0.00001616,0.00000466,-0.00000216,-0.00000137,-0
 .00000170,0.00000134,0.00000169,-0.00000225,0.00000014,0.00000265,-0.0
 0000231,0.00000072,-0.00000027,0.00000084,-0.00000075,0.00004216,-0.00
 003619,-0.00001763,-0.00041672,0.00006412,-0.00040289,-0.00001779,0.00
 001684,-0.00000629,0.00006868,-0.00008272,-0.00008035,-0.00000525,0.00
 001794,0.00002576,-0.00000709,0.00003691,0.00000140,-0.00004575,0.0000
 0208,0.00004281,0.00000041,0.00002580,0.00000732,0.00013844,-0.0000240
 3,0.00024529,0.00034846,-0.00003139,0.00037458,-0.01321684,0.02848911,
 0.00236057,-0.00300110,0.01207549,0.05073157\\0.00000425,-0.00000273,0
 .00000362,0.00000019,-0.00000102,0.00000089,-0.00000146,-0.00000136,-0
 .00000062,-0.00000079,0.00000119,-0.00000121,-0.00000207,0.00000382,-0
 .00000131,0.00000219,-0.00000183,-0.00000208,0.00000061,0.00000659,0.0
 0000621,-0.00000403,-0.00001055,-0.00000053,-0.00000184,0.00000629,-0.
 00000705,-0.00000076,-0.00000019,0.00000094,-0.00000261,0.00000085,0.0
 0000155,0.00000500,0.00000578,0.00000511,0.00000147,-0.00000056,0.0000
 0025,0.00000687,-0.00000310,0.00000233,-0.00000417,0.00000628,0.000000
 70,0.00000741,0.00000147,-0.00000121,0.00000220,-0.00000241,0.,0.00000
 051,0.00000295,0.00000102,-0.00000003,0.00000325,-0.00000539,-0.000004
 49,0.00000825,-0.00000684,-0.00000032,-0.00000300,0.00000348,-0.000001
 36,0.00000147,-0.00000599,0.00000577,0.00000119,0.00001115,0.00000251,
 0.00000217,0.00000630,0.00000624,0.00000395,0.00000178,-0.00000325,0.,
 0.00000021,-0.00000193,-0.00000125,0.00000034,-0.00000079,-0.00000847,
 0.00000759,-0.00000806,-0.00000812,-0.00000761,-0.00000121,0.00000629,
 -0.00000179,0.00000162,-0.00000684,0.00000228,-0.00000660,0.00000306,-
 0.00000354,0.00000398,0.00001232,0.00000619,-0.00000024,-0.00000361,-0
 .00000146,-0.00000861,-0.00000044,-0.00000368,0.00000266,-0.00000562,-
 0.00000823,0.00000711,-0.00000595,-0.00000242,-0.00000031,-0.00000179,
 -0.00000042,-0.00000109,-0.00000133,0.00000056,-0.00000102,-0.00000010
 ,-0.00000044,-0.00000058,-0.00000076,0.00000070,-0.00000087,-0.0000018
 0,-0.00000027,-0.00000101,-0.00000194,0.00000110,-0.00000015,0.,0.0000
 0169,-0.00000051,-0.00000045,0.00000008,0.00000040,-0.00000015,0.00000
 057,-0.00000046,0.00000115,0.00000033,0.00000027,-0.00000405,0.0000008
 5,0.00000125,-0.00000215,0.00000010,0.00000044,-0.00000165,-0.00000098
 ,0.00000048,0.00000215,-0.00000090,0.00000229,0.00000151,0.00000190,-0
 .00000059,-0.00000258,-0.00000294,-0.00000064,-0.00000065,0.00000087,0
 .00000247,0.00000056,0.00000047,0.00000088,0.00000129,0.00000090,0.000
 00157,0.00000293,0.00000045,0.00000099,0.00000037,-0.00000102,0.000000
 99,0.00000103,0.00000034,-0.00000219,0.00000406,0.00000258,-0.00000491
 ,-0.00000156,-0.00000063,-0.00000039,-0.00000122,0.00000018,-0.0000003
 9,0.00000007,0.00000122,0.00000049,0.00000092,-0.00000040,-0.00000109,
 0.00000151,-0.00000133,-0.00000068,-0.00000005,-0.00000035,0.00000036,
 0.00000082,-0.00000286,-0.00000172,-0.00000102,-0.00000095,-0.00000096
 ,-0.00000290,-0.00000024,0.00000076,-0.00000232,-0.00000216\\\@


 THERE'S NOTHING WRONG WITH FOLLOWING A TRAIN OF THOUGHT...
 AS LONG AS IT ULTIMATELY PULLS INTO THE STATION.
 Job cpu time:       0 days 22 hours 36 minutes 30.5 seconds.
 Elapsed time:       0 days  1 hours  8 minutes  3.6 seconds.
 File lengths (MBytes):  RWF=   2658 Int=      0 D2E=      0 Chk=     44 Scr=      1
 Normal termination of Gaussian 16 at Sat Jun 19 20:34:13 2021.
