 Entering Gaussian System, Link 0=g16
 Input=Revised-SAH-42C-3-opt_freq-conf-1.com
 Output=Revised-SAH-42C-3-opt_freq-conf-1.log
 Initial command:
 /home/admin/g16/l1.exe "/home/admin/tmp/Gau-244546.inp" -scrdir="/home/admin/tmp/"
 Entering Link 1 = /home/admin/g16/l1.exe PID=    244556.
  
 Copyright (c) 1988,1990,1992,1993,1995,1998,2003,2009,2016,
            Gaussian, Inc.  All Rights Reserved.
  
 This is part of the Gaussian(R) 16 program.  It is based on
 the Gaussian(R) 09 system (copyright 2009, Gaussian, Inc.),
 the Gaussian(R) 03 system (copyright 2003, Gaussian, Inc.),
 the Gaussian(R) 98 system (copyright 1998, Gaussian, Inc.),
 the Gaussian(R) 94 system (copyright 1995, Gaussian, Inc.),
 the Gaussian 92(TM) system (copyright 1992, Gaussian, Inc.),
 the Gaussian 90(TM) system (copyright 1990, Gaussian, Inc.),
 the Gaussian 88(TM) system (copyright 1988, Gaussian, Inc.),
 the Gaussian 86(TM) system (copyright 1986, Carnegie Mellon
 University), and the Gaussian 82(TM) system (copyright 1983,
 Carnegie Mellon University). Gaussian is a federally registered
 trademark of Gaussian, Inc.
  
 This software contains proprietary and confidential information,
 including trade secrets, belonging to Gaussian, Inc.
  
 This software is provided under written license and may be
 used, copied, transmitted, or stored only in accord with that
 written license.
  
 The following legend is applicable only to US Government
 contracts under FAR:
  
                    RESTRICTED RIGHTS LEGEND
  
 Use, reproduction and disclosure by the US Government is
 subject to restrictions as set forth in subparagraphs (a)
 and (c) of the Commercial Computer Software - Restricted
 Rights clause in FAR 52.227-19.
  
 Gaussian, Inc.
 340 Quinnipiac St., Bldg. 40, Wallingford CT 06492
  
  
 ---------------------------------------------------------------
 Warning -- This program may not be used in any manner that
 competes with the business of Gaussian, Inc. or will provide
 assistance to any competitor of Gaussian, Inc.  The licensee
 of this program is prohibited from giving any competitor of
 Gaussian, Inc. access to this program.  By using this program,
 the user acknowledges that Gaussian, Inc. is engaged in the
 business of creating and licensing software in the field of
 computational chemistry and represents and warrants to the
 licensee that it is not a competitor of Gaussian, Inc. and that
 it will not use this program in any manner prohibited above.
 ---------------------------------------------------------------
  

 Cite this work as:
 Gaussian 16, Revision A.03,
 M. J. Frisch, G. W. Trucks, H. B. Schlegel, G. E. Scuseria, 
 M. A. Robb, J. R. Cheeseman, G. Scalmani, V. Barone, 
 G. A. Petersson, H. Nakatsuji, X. Li, M. Caricato, A. V. Marenich, 
 J. Bloino, B. G. Janesko, R. Gomperts, B. Mennucci, H. P. Hratchian, 
 J. V. Ortiz, A. F. Izmaylov, J. L. Sonnenberg, D. Williams-Young, 
 F. Ding, F. Lipparini, F. Egidi, J. Goings, B. Peng, A. Petrone, 
 T. Henderson, D. Ranasinghe, V. G. Zakrzewski, J. Gao, N. Rega, 
 G. Zheng, W. Liang, M. Hada, M. Ehara, K. Toyota, R. Fukuda, 
 J. Hasegawa, M. Ishida, T. Nakajima, Y. Honda, O. Kitao, H. Nakai, 
 T. Vreven, K. Throssell, J. A. Montgomery, Jr., J. E. Peralta, 
 F. Ogliaro, M. J. Bearpark, J. J. Heyd, E. N. Brothers, K. N. Kudin, 
 V. N. Staroverov, T. A. Keith, R. Kobayashi, J. Normand, 
 K. Raghavachari, A. P. Rendell, J. C. Burant, S. S. Iyengar, 
 J. Tomasi, M. Cossi, J. M. Millam, M. Klene, C. Adamo, R. Cammi, 
 J. W. Ochterski, R. L. Martin, K. Morokuma, O. Farkas, 
 J. B. Foresman, and D. J. Fox, Gaussian, Inc., Wallingford CT, 2016.
 
 ******************************************
 Gaussian 16:  ES64L-G16RevA.03 25-Dec-2016
                19-Jun-2021 
 ******************************************
 %mem=40gb
 %nproc=20
 Will use up to   20 processors via shared memory.
 %chk=Revised-SAH-42C-3-conf-1.chk
 ----------------------------------------------------------------------
 # b3lyp/6-31G(d) opt freq=noraman em=gd3bj integral(ultrafinegrid) scr
 f=(iefpcm,read,solvent=methanol)
 ----------------------------------------------------------------------
 1/18=20,19=15,26=6,38=1,40=2/1,3;
 2/9=110,12=2,17=6,18=5,40=1/2;
 3/5=1,6=6,7=1,11=2,25=1,30=1,70=2203,71=1,72=3,74=-5,75=-5,124=41/1,2,3;
 4//1;
 5/5=2,38=5,53=3/2;
 6/7=2,8=2,9=2,10=2,28=1/1;
 7//1,2,3,16;
 1/18=20,19=15,26=6/3(2);
 2/9=110/2;
 99//99;
 2/9=110/2;
 3/5=1,6=6,7=1,11=2,25=1,30=1,70=2205,71=1,72=3,74=-5,75=-5,124=41/1,2,3;
 4/5=5,16=3,69=1/1;
 5/5=2,38=5,53=3/2;
 7//1,2,3,16;
 1/18=20,19=15,26=6/3(-5);
 2/9=110/2;
 6/7=2,8=2,9=2,10=2,19=2,28=1/1;
 99/9=1/99;
 ----------------------------------------------------------------------
 Candidate Structure: Revised-SAH-42C-3, Conformer: 1 geometry optimiza
 tion and frequency calculation with methanol solvation
 ----------------------------------------------------------------------
 Symbolic Z-matrix:
 Charge =  0 Multiplicity = 1
 C                     2.48938   5.51882  -4.69236 
 O                     2.16507   6.89415  -4.54739 
 H                     1.54829   11.6275  -1.51461 
 C                    -0.06721   11.65069   0.60697 
 C                     2.34638   11.73244   1.21684 
 C                     1.27658   10.91544   0.48531 
 C                     1.60271   6.72899  -0.60646 
 C                     3.20446   8.70197  -0.70058 
 C                     2.29596   7.74485  -1.50054 
 H                     2.8747    11.06626  -3.18496 
 H                     1.87586   9.37882  -4.35903 
 O                     5.54988   10.78972  -2.3616 
 H                     5.70685   8.2332   -2.65306 
 C                     9.90949   4.02661  -4.12255 
 C                     10.17318   2.78438  -3.54006 
 C                     9.72845   2.51124  -2.24854 
 C                     9.02537   3.48118  -1.53721 
 C                     8.76095   4.72366  -2.11982 
 O                     8.57148   8.73063  -5.38025 
 C                     9.18856   5.00425  -3.42449 
 C                     8.95599   6.30466  -4.06708 
 C                     7.82721   7.01812  -3.92657 
 C                     7.68189   8.31405  -4.64124 
 O                     3.16392   7.03295  -2.41212 
 C                     3.07325   10.12164  -1.28013 
 C                     1.63413   10.65487  -1.00804 
 C                     0.6322    9.69082  -1.67671 
 C                     1.34014   8.54886  -2.40136 
 N                     6.52011   9.02247  -4.43146 
 C                     6.32059   10.2959  -5.11348 
 C                     4.94013   10.77642  -4.67263 
 C                     3.05329   7.64509  -3.70477 
 C                     4.42363   7.75963  -4.3477 
 C                     5.35711   8.69291  -3.58258 
 C                     4.74113   10.07851  -3.3135 
 C                     3.27335   10.10068  -2.8377 
 C                     2.3655    8.99989  -3.45425 
 H                     1.68214   5.04193  -5.2557 
 H                     3.41295   5.38962  -5.26198 
 H                     2.56469   5.02004  -3.72214 
 H                    -0.3217    11.82041   1.65896 
 H                    -0.03039   12.62557   0.1087 
 H                    -0.88654   11.07627   0.16509 
 H                     3.27749   11.1676   1.32176 
 H                     2.56505   12.66521   0.68629 
 H                     2.01671   11.9895   2.22954 
 H                     1.1725    9.95668   1.008 
 H                     1.02257   6.01774  -1.20493 
 H                     2.33791   6.1375   -0.04934 
 H                     0.92951   7.20992   0.10961 
 H                     4.25124   8.37972  -0.7478 
 H                     2.93378   8.70749   0.3605 
 H                     6.48578   10.59429  -2.55591 
 H                     10.26653   4.22148  -5.13173 
 H                     10.72784   2.03232  -4.09516 
 H                     9.93545   1.54577  -1.79434 
 H                     8.68777   3.27407  -0.52496 
 H                     8.22967   5.47038  -1.53531 
 H                     9.75861   6.66718  -4.70771 
 H                     7.01362   6.65266  -3.31959 
 H                     3.79567   10.79314  -0.81001 
 H                    -0.05839   9.26068  -0.94272 
 H                     0.01702   10.2503  -2.39226 
 H                     0.5893    7.89251  -2.86018 
 H                     6.388     10.16002  -6.19757 
 H                     7.11174   10.98553  -4.79854 
 H                     4.91378   11.86877  -4.60299 
 H                     4.18285   10.45894  -5.3987 
 H                     4.30861   8.07811  -5.39233 
 H                     4.89961   6.77367  -4.40174 
 

 GradGradGradGradGradGradGradGradGradGradGradGradGradGradGradGradGradGrad
 Berny optimization.
 Initialization pass.
                           ----------------------------
                           !    Initial Parameters    !
                           ! (Angstroms and Degrees)  !
 --------------------------                            --------------------------
 ! Name  Definition              Value          Derivative Info.                !
 --------------------------------------------------------------------------------
 ! R1    R(1,2)                  1.4205         estimate D2E/DX2                !
 ! R2    R(1,38)                 1.0938         estimate D2E/DX2                !
 ! R3    R(1,39)                 1.0928         estimate D2E/DX2                !
 ! R4    R(1,40)                 1.0935         estimate D2E/DX2                !
 ! R5    R(2,32)                 1.4363         estimate D2E/DX2                !
 ! R6    R(3,26)                 1.1            estimate D2E/DX2                !
 ! R7    R(4,6)                  1.5366         estimate D2E/DX2                !
 ! R8    R(4,41)                 1.0956         estimate D2E/DX2                !
 ! R9    R(4,42)                 1.0955         estimate D2E/DX2                !
 ! R10   R(4,43)                 1.0938         estimate D2E/DX2                !
 ! R11   R(5,6)                  1.532          estimate D2E/DX2                !
 ! R12   R(5,44)                 1.0941         estimate D2E/DX2                !
 ! R13   R(5,45)                 1.0952         estimate D2E/DX2                !
 ! R14   R(5,46)                 1.0956         estimate D2E/DX2                !
 ! R15   R(6,26)                 1.5575         estimate D2E/DX2                !
 ! R16   R(6,47)                 1.0969         estimate D2E/DX2                !
 ! R17   R(7,9)                  1.5205         estimate D2E/DX2                !
 ! R18   R(7,48)                 1.0957         estimate D2E/DX2                !
 ! R19   R(7,49)                 1.0958         estimate D2E/DX2                !
 ! R20   R(7,50)                 1.0942         estimate D2E/DX2                !
 ! R21   R(8,9)                  1.5432         estimate D2E/DX2                !
 ! R22   R(8,25)                 1.539          estimate D2E/DX2                !
 ! R23   R(8,51)                 1.0963         estimate D2E/DX2                !
 ! R24   R(8,52)                 1.0951         estimate D2E/DX2                !
 ! R25   R(9,24)                 1.4461         estimate D2E/DX2                !
 ! R26   R(9,28)                 1.54           estimate D2E/DX2                !
 ! R27   R(10,36)                1.1009         estimate D2E/DX2                !
 ! R28   R(11,37)                1.0963         estimate D2E/DX2                !
 ! R29   R(12,35)                1.4374         estimate D2E/DX2                !
 ! R30   R(12,53)                0.9756         estimate D2E/DX2                !
 ! R31   R(13,34)                1.0944         estimate D2E/DX2                !
 ! R32   R(14,15)                1.3971         estimate D2E/DX2                !
 ! R33   R(14,20)                1.401          estimate D2E/DX2                !
 ! R34   R(14,54)                1.0881         estimate D2E/DX2                !
 ! R35   R(15,16)                1.393          estimate D2E/DX2                !
 ! R36   R(15,55)                1.0869         estimate D2E/DX2                !
 ! R37   R(16,17)                1.3932         estimate D2E/DX2                !
 ! R38   R(16,56)                1.0869         estimate D2E/DX2                !
 ! R39   R(17,18)                1.3975         estimate D2E/DX2                !
 ! R40   R(17,57)                1.087          estimate D2E/DX2                !
 ! R41   R(18,20)                1.4013         estimate D2E/DX2                !
 ! R42   R(18,58)                1.087          estimate D2E/DX2                !
 ! R43   R(19,23)                1.2292         estimate D2E/DX2                !
 ! R44   R(20,21)                1.469          estimate D2E/DX2                !
 ! R45   R(21,22)                1.3427         estimate D2E/DX2                !
 ! R46   R(21,59)                1.089          estimate D2E/DX2                !
 ! R47   R(22,23)                1.487          estimate D2E/DX2                !
 ! R48   R(22,60)                1.0789         estimate D2E/DX2                !
 ! R49   R(23,29)                1.3768         estimate D2E/DX2                !
 ! R50   R(24,32)                1.4345         estimate D2E/DX2                !
 ! R51   R(25,26)                1.5587         estimate D2E/DX2                !
 ! R52   R(25,36)                1.5705         estimate D2E/DX2                !
 ! R53   R(25,61)                1.0926         estimate D2E/DX2                !
 ! R54   R(26,27)                1.5428         estimate D2E/DX2                !
 ! R55   R(27,28)                1.5266         estimate D2E/DX2                !
 ! R56   R(27,62)                1.0958         estimate D2E/DX2                !
 ! R57   R(27,63)                1.097          estimate D2E/DX2                !
 ! R58   R(28,37)                1.5373         estimate D2E/DX2                !
 ! R59   R(28,64)                1.0978         estimate D2E/DX2                !
 ! R60   R(29,30)                1.4583         estimate D2E/DX2                !
 ! R61   R(29,34)                1.4771         estimate D2E/DX2                !
 ! R62   R(30,31)                1.5267         estimate D2E/DX2                !
 ! R63   R(30,65)                1.0947         estimate D2E/DX2                !
 ! R64   R(30,66)                1.0958         estimate D2E/DX2                !
 ! R65   R(31,35)                1.5408         estimate D2E/DX2                !
 ! R66   R(31,67)                1.0949         estimate D2E/DX2                !
 ! R67   R(31,68)                1.0961         estimate D2E/DX2                !
 ! R68   R(32,33)                1.518          estimate D2E/DX2                !
 ! R69   R(32,37)                1.5399         estimate D2E/DX2                !
 ! R70   R(33,34)                1.5257         estimate D2E/DX2                !
 ! R71   R(33,69)                1.0981         estimate D2E/DX2                !
 ! R72   R(33,70)                1.0962         estimate D2E/DX2                !
 ! R73   R(34,35)                1.54           estimate D2E/DX2                !
 ! R74   R(35,36)                1.5431         estimate D2E/DX2                !
 ! R75   R(36,37)                1.5544         estimate D2E/DX2                !
 ! A1    A(2,1,38)             107.8305         estimate D2E/DX2                !
 ! A2    A(2,1,39)             111.1397         estimate D2E/DX2                !
 ! A3    A(2,1,40)             111.5187         estimate D2E/DX2                !
 ! A4    A(38,1,39)            107.6811         estimate D2E/DX2                !
 ! A5    A(38,1,40)            107.994          estimate D2E/DX2                !
 ! A6    A(39,1,40)            110.509          estimate D2E/DX2                !
 ! A7    A(1,2,32)             115.1448         estimate D2E/DX2                !
 ! A8    A(6,4,41)             110.6889         estimate D2E/DX2                !
 ! A9    A(6,4,42)             111.1257         estimate D2E/DX2                !
 ! A10   A(6,4,43)             111.8255         estimate D2E/DX2                !
 ! A11   A(41,4,42)            107.861          estimate D2E/DX2                !
 ! A12   A(41,4,43)            107.1733         estimate D2E/DX2                !
 ! A13   A(42,4,43)            107.9849         estimate D2E/DX2                !
 ! A14   A(6,5,44)             111.3922         estimate D2E/DX2                !
 ! A15   A(6,5,45)             111.2427         estimate D2E/DX2                !
 ! A16   A(6,5,46)             110.8776         estimate D2E/DX2                !
 ! A17   A(44,5,45)            108.436          estimate D2E/DX2                !
 ! A18   A(44,5,46)            106.7722         estimate D2E/DX2                !
 ! A19   A(45,5,46)            107.9413         estimate D2E/DX2                !
 ! A20   A(4,6,5)              108.5233         estimate D2E/DX2                !
 ! A21   A(4,6,26)             110.8992         estimate D2E/DX2                !
 ! A22   A(4,6,47)             107.3085         estimate D2E/DX2                !
 ! A23   A(5,6,26)             112.7516         estimate D2E/DX2                !
 ! A24   A(5,6,47)             107.7485         estimate D2E/DX2                !
 ! A25   A(26,6,47)            109.4162         estimate D2E/DX2                !
 ! A26   A(9,7,48)             110.7268         estimate D2E/DX2                !
 ! A27   A(9,7,49)             110.7132         estimate D2E/DX2                !
 ! A28   A(9,7,50)             111.8191         estimate D2E/DX2                !
 ! A29   A(48,7,49)            106.4123         estimate D2E/DX2                !
 ! A30   A(48,7,50)            108.4809         estimate D2E/DX2                !
 ! A31   A(49,7,50)            108.5005         estimate D2E/DX2                !
 ! A32   A(9,8,25)             109.0704         estimate D2E/DX2                !
 ! A33   A(9,8,51)             110.9461         estimate D2E/DX2                !
 ! A34   A(9,8,52)             111.0938         estimate D2E/DX2                !
 ! A35   A(25,8,51)            109.6543         estimate D2E/DX2                !
 ! A36   A(25,8,52)            109.8261         estimate D2E/DX2                !
 ! A37   A(51,8,52)            106.2148         estimate D2E/DX2                !
 ! A38   A(7,9,8)              112.2085         estimate D2E/DX2                !
 ! A39   A(7,9,24)             108.3868         estimate D2E/DX2                !
 ! A40   A(7,9,28)             114.1922         estimate D2E/DX2                !
 ! A41   A(8,9,24)             106.1858         estimate D2E/DX2                !
 ! A42   A(8,9,28)             110.1706         estimate D2E/DX2                !
 ! A43   A(24,9,28)            105.1185         estimate D2E/DX2                !
 ! A44   A(35,12,53)           107.9829         estimate D2E/DX2                !
 ! A45   A(15,14,20)           120.6528         estimate D2E/DX2                !
 ! A46   A(15,14,54)           118.9467         estimate D2E/DX2                !
 ! A47   A(20,14,54)           120.3989         estimate D2E/DX2                !
 ! A48   A(14,15,16)           120.0418         estimate D2E/DX2                !
 ! A49   A(14,15,55)           119.9075         estimate D2E/DX2                !
 ! A50   A(16,15,55)           120.0505         estimate D2E/DX2                !
 ! A51   A(15,16,17)           119.8666         estimate D2E/DX2                !
 ! A52   A(15,16,56)           120.0546         estimate D2E/DX2                !
 ! A53   A(17,16,56)           120.0775         estimate D2E/DX2                !
 ! A54   A(16,17,18)           120.1039         estimate D2E/DX2                !
 ! A55   A(16,17,57)           119.9704         estimate D2E/DX2                !
 ! A56   A(18,17,57)           119.9244         estimate D2E/DX2                !
 ! A57   A(17,18,20)           120.5577         estimate D2E/DX2                !
 ! A58   A(17,18,58)           118.6233         estimate D2E/DX2                !
 ! A59   A(20,18,58)           120.8138         estimate D2E/DX2                !
 ! A60   A(14,20,18)           118.7632         estimate D2E/DX2                !
 ! A61   A(14,20,21)           118.7654         estimate D2E/DX2                !
 ! A62   A(18,20,21)           122.4242         estimate D2E/DX2                !
 ! A63   A(20,21,22)           123.8948         estimate D2E/DX2                !
 ! A64   A(20,21,59)           115.8047         estimate D2E/DX2                !
 ! A65   A(22,21,59)           120.2813         estimate D2E/DX2                !
 ! A66   A(21,22,23)           119.6645         estimate D2E/DX2                !
 ! A67   A(21,22,60)           120.8536         estimate D2E/DX2                !
 ! A68   A(23,22,60)           119.4665         estimate D2E/DX2                !
 ! A69   A(19,23,22)           120.9002         estimate D2E/DX2                !
 ! A70   A(19,23,29)           121.8635         estimate D2E/DX2                !
 ! A71   A(22,23,29)           117.2349         estimate D2E/DX2                !
 ! A72   A(9,24,32)            108.1599         estimate D2E/DX2                !
 ! A73   A(8,25,26)            109.1812         estimate D2E/DX2                !
 ! A74   A(8,25,36)            110.5056         estimate D2E/DX2                !
 ! A75   A(8,25,61)            110.3971         estimate D2E/DX2                !
 ! A76   A(26,25,36)           107.1776         estimate D2E/DX2                !
 ! A77   A(26,25,61)           108.9723         estimate D2E/DX2                !
 ! A78   A(36,25,61)           110.5289         estimate D2E/DX2                !
 ! A79   A(3,26,6)             106.0043         estimate D2E/DX2                !
 ! A80   A(3,26,25)            107.1068         estimate D2E/DX2                !
 ! A81   A(3,26,27)            107.5914         estimate D2E/DX2                !
 ! A82   A(6,26,25)            115.8852         estimate D2E/DX2                !
 ! A83   A(6,26,27)            111.7778         estimate D2E/DX2                !
 ! A84   A(25,26,27)           108.0697         estimate D2E/DX2                !
 ! A85   A(26,27,28)           111.8389         estimate D2E/DX2                !
 ! A86   A(26,27,62)           111.3613         estimate D2E/DX2                !
 ! A87   A(26,27,63)           109.1588         estimate D2E/DX2                !
 ! A88   A(28,27,62)           108.4571         estimate D2E/DX2                !
 ! A89   A(28,27,63)           109.387          estimate D2E/DX2                !
 ! A90   A(62,27,63)           106.4809         estimate D2E/DX2                !
 ! A91   A(9,28,27)            113.6235         estimate D2E/DX2                !
 ! A92   A(9,28,37)             98.0382         estimate D2E/DX2                !
 ! A93   A(9,28,64)            110.9072         estimate D2E/DX2                !
 ! A94   A(27,28,37)           114.5162         estimate D2E/DX2                !
 ! A95   A(27,28,64)           109.1762         estimate D2E/DX2                !
 ! A96   A(37,28,64)           110.2035         estimate D2E/DX2                !
 ! A97   A(23,29,30)           119.5713         estimate D2E/DX2                !
 ! A98   A(23,29,34)           129.5804         estimate D2E/DX2                !
 ! A99   A(30,29,34)           110.8477         estimate D2E/DX2                !
 ! A100  A(29,30,31)           105.2785         estimate D2E/DX2                !
 ! A101  A(29,30,65)           110.2641         estimate D2E/DX2                !
 ! A102  A(29,30,66)           108.4442         estimate D2E/DX2                !
 ! A103  A(31,30,65)           112.3779         estimate D2E/DX2                !
 ! A104  A(31,30,66)           111.8243         estimate D2E/DX2                !
 ! A105  A(65,30,66)           108.5604         estimate D2E/DX2                !
 ! A106  A(30,31,35)           103.2337         estimate D2E/DX2                !
 ! A107  A(30,31,67)           110.7405         estimate D2E/DX2                !
 ! A108  A(30,31,68)           110.0148         estimate D2E/DX2                !
 ! A109  A(35,31,67)           113.1228         estimate D2E/DX2                !
 ! A110  A(35,31,68)           111.3397         estimate D2E/DX2                !
 ! A111  A(67,31,68)           108.3293         estimate D2E/DX2                !
 ! A112  A(2,32,24)            110.6855         estimate D2E/DX2                !
 ! A113  A(2,32,33)            110.4407         estimate D2E/DX2                !
 ! A114  A(2,32,37)            106.2138         estimate D2E/DX2                !
 ! A115  A(24,32,33)           110.1342         estimate D2E/DX2                !
 ! A116  A(24,32,37)           105.2648         estimate D2E/DX2                !
 ! A117  A(33,32,37)           113.9363         estimate D2E/DX2                !
 ! A118  A(32,33,34)           112.7102         estimate D2E/DX2                !
 ! A119  A(32,33,69)           109.2826         estimate D2E/DX2                !
 ! A120  A(32,33,70)           110.1815         estimate D2E/DX2                !
 ! A121  A(34,33,69)           111.3293         estimate D2E/DX2                !
 ! A122  A(34,33,70)           108.0146         estimate D2E/DX2                !
 ! A123  A(69,33,70)           105.0371         estimate D2E/DX2                !
 ! A124  A(13,34,29)           109.2825         estimate D2E/DX2                !
 ! A125  A(13,34,33)           111.378          estimate D2E/DX2                !
 ! A126  A(13,34,35)           110.9377         estimate D2E/DX2                !
 ! A127  A(29,34,33)           109.2693         estimate D2E/DX2                !
 ! A128  A(29,34,35)           102.3919         estimate D2E/DX2                !
 ! A129  A(33,34,35)           113.1579         estimate D2E/DX2                !
 ! A130  A(12,35,31)           106.7017         estimate D2E/DX2                !
 ! A131  A(12,35,34)           109.6243         estimate D2E/DX2                !
 ! A132  A(12,35,36)           108.8977         estimate D2E/DX2                !
 ! A133  A(31,35,34)           101.6398         estimate D2E/DX2                !
 ! A134  A(31,35,36)           112.8504         estimate D2E/DX2                !
 ! A135  A(34,35,36)           116.5669         estimate D2E/DX2                !
 ! A136  A(10,36,25)           104.7739         estimate D2E/DX2                !
 ! A137  A(10,36,35)           105.0575         estimate D2E/DX2                !
 ! A138  A(10,36,37)           106.531          estimate D2E/DX2                !
 ! A139  A(25,36,35)           115.2885         estimate D2E/DX2                !
 ! A140  A(25,36,37)           109.1733         estimate D2E/DX2                !
 ! A141  A(35,36,37)           115.0282         estimate D2E/DX2                !
 ! A142  A(11,37,28)           111.6377         estimate D2E/DX2                !
 ! A143  A(11,37,32)           111.6728         estimate D2E/DX2                !
 ! A144  A(11,37,36)           110.0861         estimate D2E/DX2                !
 ! A145  A(28,37,32)            98.6964         estimate D2E/DX2                !
 ! A146  A(28,37,36)           109.0057         estimate D2E/DX2                !
 ! A147  A(32,37,36)           115.2599         estimate D2E/DX2                !
 ! D1    D(38,1,2,32)          173.6117         estimate D2E/DX2                !
 ! D2    D(39,1,2,32)          -68.5853         estimate D2E/DX2                !
 ! D3    D(40,1,2,32)           55.2105         estimate D2E/DX2                !
 ! D4    D(1,2,32,24)          -54.7398         estimate D2E/DX2                !
 ! D5    D(1,2,32,33)           67.495          estimate D2E/DX2                !
 ! D6    D(1,2,32,37)         -168.4979         estimate D2E/DX2                !
 ! D7    D(41,4,6,5)           -56.3796         estimate D2E/DX2                !
 ! D8    D(41,4,6,26)          179.2509         estimate D2E/DX2                !
 ! D9    D(41,4,6,47)           59.7978         estimate D2E/DX2                !
 ! D10   D(42,4,6,5)            63.4477         estimate D2E/DX2                !
 ! D11   D(42,4,6,26)          -60.9218         estimate D2E/DX2                !
 ! D12   D(42,4,6,47)          179.6251         estimate D2E/DX2                !
 ! D13   D(43,4,6,5)          -175.801          estimate D2E/DX2                !
 ! D14   D(43,4,6,26)           59.8295         estimate D2E/DX2                !
 ! D15   D(43,4,6,47)          -59.6235         estimate D2E/DX2                !
 ! D16   D(44,5,6,4)           169.4018         estimate D2E/DX2                !
 ! D17   D(44,5,6,26)          -67.3363         estimate D2E/DX2                !
 ! D18   D(44,5,6,47)           53.5088         estimate D2E/DX2                !
 ! D19   D(45,5,6,4)           -69.488          estimate D2E/DX2                !
 ! D20   D(45,5,6,26)           53.7738         estimate D2E/DX2                !
 ! D21   D(45,5,6,47)          174.619          estimate D2E/DX2                !
 ! D22   D(46,5,6,4)            50.6438         estimate D2E/DX2                !
 ! D23   D(46,5,6,26)          173.9056         estimate D2E/DX2                !
 ! D24   D(46,5,6,47)          -65.2492         estimate D2E/DX2                !
 ! D25   D(4,6,26,3)            51.9712         estimate D2E/DX2                !
 ! D26   D(4,6,26,25)          170.6125         estimate D2E/DX2                !
 ! D27   D(4,6,26,27)          -64.9761         estimate D2E/DX2                !
 ! D28   D(5,6,26,3)           -69.9594         estimate D2E/DX2                !
 ! D29   D(5,6,26,25)           48.6819         estimate D2E/DX2                !
 ! D30   D(5,6,26,27)          173.0934         estimate D2E/DX2                !
 ! D31   D(47,6,26,3)          170.1524         estimate D2E/DX2                !
 ! D32   D(47,6,26,25)         -71.2062         estimate D2E/DX2                !
 ! D33   D(47,6,26,27)          53.2052         estimate D2E/DX2                !
 ! D34   D(48,7,9,8)          -175.892          estimate D2E/DX2                !
 ! D35   D(48,7,9,24)          -58.9561         estimate D2E/DX2                !
 ! D36   D(48,7,9,28)           57.8288         estimate D2E/DX2                !
 ! D37   D(49,7,9,8)           -58.113          estimate D2E/DX2                !
 ! D38   D(49,7,9,24)           58.8229         estimate D2E/DX2                !
 ! D39   D(49,7,9,28)          175.6078         estimate D2E/DX2                !
 ! D40   D(50,7,9,8)            63.0053         estimate D2E/DX2                !
 ! D41   D(50,7,9,24)          179.9412         estimate D2E/DX2                !
 ! D42   D(50,7,9,28)          -63.2739         estimate D2E/DX2                !
 ! D43   D(25,8,9,7)          -140.5194         estimate D2E/DX2                !
 ! D44   D(25,8,9,24)          101.2339         estimate D2E/DX2                !
 ! D45   D(25,8,9,28)          -12.0914         estimate D2E/DX2                !
 ! D46   D(51,8,9,7)            98.5909         estimate D2E/DX2                !
 ! D47   D(51,8,9,24)          -19.6558         estimate D2E/DX2                !
 ! D48   D(51,8,9,28)         -132.9811         estimate D2E/DX2                !
 ! D49   D(52,8,9,7)           -19.322          estimate D2E/DX2                !
 ! D50   D(52,8,9,24)         -137.5687         estimate D2E/DX2                !
 ! D51   D(52,8,9,28)          109.106          estimate D2E/DX2                !
 ! D52   D(9,8,25,26)           67.0381         estimate D2E/DX2                !
 ! D53   D(9,8,25,36)          -50.6041         estimate D2E/DX2                !
 ! D54   D(9,8,25,61)         -173.1867         estimate D2E/DX2                !
 ! D55   D(51,8,25,26)        -171.2857         estimate D2E/DX2                !
 ! D56   D(51,8,25,36)          71.0721         estimate D2E/DX2                !
 ! D57   D(51,8,25,61)         -51.5105         estimate D2E/DX2                !
 ! D58   D(52,8,25,26)         -54.9287         estimate D2E/DX2                !
 ! D59   D(52,8,25,36)        -172.5709         estimate D2E/DX2                !
 ! D60   D(52,8,25,61)          64.8465         estimate D2E/DX2                !
 ! D61   D(7,9,24,32)          139.0935         estimate D2E/DX2                !
 ! D62   D(8,9,24,32)         -100.1605         estimate D2E/DX2                !
 ! D63   D(28,9,24,32)          16.605          estimate D2E/DX2                !
 ! D64   D(7,9,28,27)           79.3121         estimate D2E/DX2                !
 ! D65   D(7,9,28,37)         -159.4116         estimate D2E/DX2                !
 ! D66   D(7,9,28,64)          -44.1145         estimate D2E/DX2                !
 ! D67   D(8,9,28,27)          -48.0229         estimate D2E/DX2                !
 ! D68   D(8,9,28,37)           73.2533         estimate D2E/DX2                !
 ! D69   D(8,9,28,64)         -171.4496         estimate D2E/DX2                !
 ! D70   D(24,9,28,27)        -162.0305         estimate D2E/DX2                !
 ! D71   D(24,9,28,37)         -40.7542         estimate D2E/DX2                !
 ! D72   D(24,9,28,64)          74.5429         estimate D2E/DX2                !
 ! D73   D(53,12,35,31)        -70.9355         estimate D2E/DX2                !
 ! D74   D(53,12,35,34)         38.3709         estimate D2E/DX2                !
 ! D75   D(53,12,35,36)        166.975          estimate D2E/DX2                !
 ! D76   D(20,14,15,16)         -0.559          estimate D2E/DX2                !
 ! D77   D(20,14,15,55)        179.5865         estimate D2E/DX2                !
 ! D78   D(54,14,15,16)        179.9058         estimate D2E/DX2                !
 ! D79   D(54,14,15,55)          0.0513         estimate D2E/DX2                !
 ! D80   D(15,14,20,18)          1.338          estimate D2E/DX2                !
 ! D81   D(15,14,20,21)        178.9029         estimate D2E/DX2                !
 ! D82   D(54,14,20,18)       -179.1335         estimate D2E/DX2                !
 ! D83   D(54,14,20,21)         -1.5687         estimate D2E/DX2                !
 ! D84   D(14,15,16,17)         -0.272          estimate D2E/DX2                !
 ! D85   D(14,15,16,56)       -179.8589         estimate D2E/DX2                !
 ! D86   D(55,15,16,17)        179.5823         estimate D2E/DX2                !
 ! D87   D(55,15,16,56)         -0.0046         estimate D2E/DX2                !
 ! D88   D(15,16,17,18)          0.2996         estimate D2E/DX2                !
 ! D89   D(15,16,17,57)       -179.277          estimate D2E/DX2                !
 ! D90   D(56,16,17,18)        179.8864         estimate D2E/DX2                !
 ! D91   D(56,16,17,57)          0.3098         estimate D2E/DX2                !
 ! D92   D(16,17,18,20)          0.5028         estimate D2E/DX2                !
 ! D93   D(16,17,18,58)       -178.6724         estimate D2E/DX2                !
 ! D94   D(57,17,18,20)       -179.9204         estimate D2E/DX2                !
 ! D95   D(57,17,18,58)          0.9044         estimate D2E/DX2                !
 ! D96   D(17,18,20,14)         -1.3091         estimate D2E/DX2                !
 ! D97   D(17,18,20,21)       -178.7802         estimate D2E/DX2                !
 ! D98   D(58,18,20,14)        177.8478         estimate D2E/DX2                !
 ! D99   D(58,18,20,21)          0.3768         estimate D2E/DX2                !
 ! D100  D(14,20,21,22)        143.7974         estimate D2E/DX2                !
 ! D101  D(14,20,21,59)        -34.6088         estimate D2E/DX2                !
 ! D102  D(18,20,21,22)        -38.7316         estimate D2E/DX2                !
 ! D103  D(18,20,21,59)        142.8622         estimate D2E/DX2                !
 ! D104  D(20,21,22,23)       -178.8816         estimate D2E/DX2                !
 ! D105  D(20,21,22,60)         -0.318          estimate D2E/DX2                !
 ! D106  D(59,21,22,23)         -0.5432         estimate D2E/DX2                !
 ! D107  D(59,21,22,60)        178.0204         estimate D2E/DX2                !
 ! D108  D(21,22,23,19)          1.3869         estimate D2E/DX2                !
 ! D109  D(21,22,23,29)       -178.1884         estimate D2E/DX2                !
 ! D110  D(60,22,23,19)       -177.1968         estimate D2E/DX2                !
 ! D111  D(60,22,23,29)          3.2279         estimate D2E/DX2                !
 ! D112  D(19,23,29,30)          0.8197         estimate D2E/DX2                !
 ! D113  D(19,23,29,34)       -179.5151         estimate D2E/DX2                !
 ! D114  D(22,23,29,30)       -179.6093         estimate D2E/DX2                !
 ! D115  D(22,23,29,34)          0.0559         estimate D2E/DX2                !
 ! D116  D(9,24,32,2)          -99.449          estimate D2E/DX2                !
 ! D117  D(9,24,32,33)         138.1372         estimate D2E/DX2                !
 ! D118  D(9,24,32,37)          14.9082         estimate D2E/DX2                !
 ! D119  D(8,25,26,3)         -174.8631         estimate D2E/DX2                !
 ! D120  D(8,25,26,6)           67.1034         estimate D2E/DX2                !
 ! D121  D(8,25,26,27)         -59.2027         estimate D2E/DX2                !
 ! D122  D(36,25,26,3)         -55.1445         estimate D2E/DX2                !
 ! D123  D(36,25,26,6)        -173.178          estimate D2E/DX2                !
 ! D124  D(36,25,26,27)         60.5159         estimate D2E/DX2                !
 ! D125  D(61,25,26,3)          64.4864         estimate D2E/DX2                !
 ! D126  D(61,25,26,6)         -53.5471         estimate D2E/DX2                !
 ! D127  D(61,25,26,27)       -179.8532         estimate D2E/DX2                !
 ! D128  D(8,25,36,10)         163.7398         estimate D2E/DX2                !
 ! D129  D(8,25,36,35)         -81.3155         estimate D2E/DX2                !
 ! D130  D(8,25,36,37)          49.9586         estimate D2E/DX2                !
 ! D131  D(26,25,36,10)         44.8733         estimate D2E/DX2                !
 ! D132  D(26,25,36,35)        159.8179         estimate D2E/DX2                !
 ! D133  D(26,25,36,37)        -68.908          estimate D2E/DX2                !
 ! D134  D(61,25,36,10)        -73.7547         estimate D2E/DX2                !
 ! D135  D(61,25,36,35)         41.19           estimate D2E/DX2                !
 ! D136  D(61,25,36,37)        172.4641         estimate D2E/DX2                !
 ! D137  D(3,26,27,28)         114.4765         estimate D2E/DX2                !
 ! D138  D(3,26,27,62)        -123.9914         estimate D2E/DX2                !
 ! D139  D(3,26,27,63)          -6.7094         estimate D2E/DX2                !
 ! D140  D(6,26,27,28)        -129.5386         estimate D2E/DX2                !
 ! D141  D(6,26,27,62)          -8.0065         estimate D2E/DX2                !
 ! D142  D(6,26,27,63)         109.2754         estimate D2E/DX2                !
 ! D143  D(25,26,27,28)         -0.8665         estimate D2E/DX2                !
 ! D144  D(25,26,27,62)        120.6656         estimate D2E/DX2                !
 ! D145  D(25,26,27,63)       -122.0525         estimate D2E/DX2                !
 ! D146  D(26,27,28,9)          55.6853         estimate D2E/DX2                !
 ! D147  D(26,27,28,37)        -55.859          estimate D2E/DX2                !
 ! D148  D(26,27,28,64)       -179.9482         estimate D2E/DX2                !
 ! D149  D(62,27,28,9)         -67.5069         estimate D2E/DX2                !
 ! D150  D(62,27,28,37)       -179.0512         estimate D2E/DX2                !
 ! D151  D(62,27,28,64)         56.8596         estimate D2E/DX2                !
 ! D152  D(63,27,28,9)         176.7391         estimate D2E/DX2                !
 ! D153  D(63,27,28,37)         65.1948         estimate D2E/DX2                !
 ! D154  D(63,27,28,64)        -58.8944         estimate D2E/DX2                !
 ! D155  D(9,28,37,11)         164.9535         estimate D2E/DX2                !
 ! D156  D(9,28,37,32)          47.3985         estimate D2E/DX2                !
 ! D157  D(9,28,37,36)         -73.2163         estimate D2E/DX2                !
 ! D158  D(27,28,37,11)        -74.4354         estimate D2E/DX2                !
 ! D159  D(27,28,37,32)        168.0096         estimate D2E/DX2                !
 ! D160  D(27,28,37,36)         47.3949         estimate D2E/DX2                !
 ! D161  D(64,28,37,11)         49.105          estimate D2E/DX2                !
 ! D162  D(64,28,37,32)        -68.45           estimate D2E/DX2                !
 ! D163  D(64,28,37,36)        170.9353         estimate D2E/DX2                !
 ! D164  D(23,29,30,31)        178.9975         estimate D2E/DX2                !
 ! D165  D(23,29,30,65)         57.5609         estimate D2E/DX2                !
 ! D166  D(23,29,30,66)        -61.1774         estimate D2E/DX2                !
 ! D167  D(34,29,30,31)         -0.7264         estimate D2E/DX2                !
 ! D168  D(34,29,30,65)       -122.1629         estimate D2E/DX2                !
 ! D169  D(34,29,30,66)        119.0987         estimate D2E/DX2                !
 ! D170  D(23,29,34,13)         38.8213         estimate D2E/DX2                !
 ! D171  D(23,29,34,33)        -83.2794         estimate D2E/DX2                !
 ! D172  D(23,29,34,35)        156.4985         estimate D2E/DX2                !
 ! D173  D(30,29,34,13)       -141.4903         estimate D2E/DX2                !
 ! D174  D(30,29,34,33)         96.409          estimate D2E/DX2                !
 ! D175  D(30,29,34,35)        -23.8131         estimate D2E/DX2                !
 ! D176  D(29,30,31,35)         25.0433         estimate D2E/DX2                !
 ! D177  D(29,30,31,67)        146.404          estimate D2E/DX2                !
 ! D178  D(29,30,31,68)        -93.872          estimate D2E/DX2                !
 ! D179  D(65,30,31,35)        145.0926         estimate D2E/DX2                !
 ! D180  D(65,30,31,67)        -93.5468         estimate D2E/DX2                !
 ! D181  D(65,30,31,68)         26.1773         estimate D2E/DX2                !
 ! D182  D(66,30,31,35)        -92.5173         estimate D2E/DX2                !
 ! D183  D(66,30,31,67)         28.8433         estimate D2E/DX2                !
 ! D184  D(66,30,31,68)        148.5674         estimate D2E/DX2                !
 ! D185  D(30,31,35,12)         75.872          estimate D2E/DX2                !
 ! D186  D(30,31,35,34)        -38.9508         estimate D2E/DX2                !
 ! D187  D(30,31,35,36)       -164.565          estimate D2E/DX2                !
 ! D188  D(67,31,35,12)        -43.8633         estimate D2E/DX2                !
 ! D189  D(67,31,35,34)       -158.686          estimate D2E/DX2                !
 ! D190  D(67,31,35,36)         75.6997         estimate D2E/DX2                !
 ! D191  D(68,31,35,12)       -166.1354         estimate D2E/DX2                !
 ! D192  D(68,31,35,34)         79.0418         estimate D2E/DX2                !
 ! D193  D(68,31,35,36)        -46.5725         estimate D2E/DX2                !
 ! D194  D(2,32,33,34)         172.8009         estimate D2E/DX2                !
 ! D195  D(2,32,33,69)          48.4575         estimate D2E/DX2                !
 ! D196  D(2,32,33,70)         -66.4677         estimate D2E/DX2                !
 ! D197  D(24,32,33,34)        -64.641          estimate D2E/DX2                !
 ! D198  D(24,32,33,69)        171.0156         estimate D2E/DX2                !
 ! D199  D(24,32,33,70)         56.0903         estimate D2E/DX2                !
 ! D200  D(37,32,33,34)         53.3639         estimate D2E/DX2                !
 ! D201  D(37,32,33,69)        -70.9795         estimate D2E/DX2                !
 ! D202  D(37,32,33,70)        174.0952         estimate D2E/DX2                !
 ! D203  D(2,32,37,11)         -40.0802         estimate D2E/DX2                !
 ! D204  D(2,32,37,28)          77.4481         estimate D2E/DX2                !
 ! D205  D(2,32,37,36)        -166.6741         estimate D2E/DX2                !
 ! D206  D(24,32,37,11)       -157.5113         estimate D2E/DX2                !
 ! D207  D(24,32,37,28)        -39.983          estimate D2E/DX2                !
 ! D208  D(24,32,37,36)         75.8948         estimate D2E/DX2                !
 ! D209  D(33,32,37,11)         81.7232         estimate D2E/DX2                !
 ! D210  D(33,32,37,28)       -160.7485         estimate D2E/DX2                !
 ! D211  D(33,32,37,36)        -44.8707         estimate D2E/DX2                !
 ! D212  D(32,33,34,13)         73.5209         estimate D2E/DX2                !
 ! D213  D(32,33,34,29)       -165.6472         estimate D2E/DX2                !
 ! D214  D(32,33,34,35)        -52.2697         estimate D2E/DX2                !
 ! D215  D(69,33,34,13)       -163.2681         estimate D2E/DX2                !
 ! D216  D(69,33,34,29)        -42.4362         estimate D2E/DX2                !
 ! D217  D(69,33,34,35)         70.9413         estimate D2E/DX2                !
 ! D218  D(70,33,34,13)        -48.4423         estimate D2E/DX2                !
 ! D219  D(70,33,34,29)         72.3897         estimate D2E/DX2                !
 ! D220  D(70,33,34,35)       -174.2329         estimate D2E/DX2                !
 ! D221  D(13,34,35,12)         41.93           estimate D2E/DX2                !
 ! D222  D(13,34,35,31)        154.5717         estimate D2E/DX2                !
 ! D223  D(13,34,35,36)        -82.3154         estimate D2E/DX2                !
 ! D224  D(29,34,35,12)        -74.5621         estimate D2E/DX2                !
 ! D225  D(29,34,35,31)         38.0796         estimate D2E/DX2                !
 ! D226  D(29,34,35,36)        161.1925         estimate D2E/DX2                !
 ! D227  D(33,34,35,12)        167.9559         estimate D2E/DX2                !
 ! D228  D(33,34,35,31)        -79.4024         estimate D2E/DX2                !
 ! D229  D(33,34,35,36)         43.7105         estimate D2E/DX2                !
 ! D230  D(12,35,36,10)         83.3702         estimate D2E/DX2                !
 ! D231  D(12,35,36,25)        -31.4115         estimate D2E/DX2                !
 ! D232  D(12,35,36,37)       -159.8351         estimate D2E/DX2                !
 ! D233  D(31,35,36,10)        -34.9168         estimate D2E/DX2                !
 ! D234  D(31,35,36,25)       -149.6985         estimate D2E/DX2                !
 ! D235  D(31,35,36,37)         81.878          estimate D2E/DX2                !
 ! D236  D(34,35,36,10)       -152.0141         estimate D2E/DX2                !
 ! D237  D(34,35,36,25)         93.2042         estimate D2E/DX2                !
 ! D238  D(34,35,36,37)        -35.2193         estimate D2E/DX2                !
 ! D239  D(10,36,37,11)         23.9325         estimate D2E/DX2                !
 ! D240  D(10,36,37,28)        -98.8332         estimate D2E/DX2                !
 ! D241  D(10,36,37,32)        151.3298         estimate D2E/DX2                !
 ! D242  D(25,36,37,11)        136.5654         estimate D2E/DX2                !
 ! D243  D(25,36,37,28)         13.7996         estimate D2E/DX2                !
 ! D244  D(25,36,37,32)        -96.0373         estimate D2E/DX2                !
 ! D245  D(35,36,37,11)        -92.0216         estimate D2E/DX2                !
 ! D246  D(35,36,37,28)        145.2126         estimate D2E/DX2                !
 ! D247  D(35,36,37,32)         35.3757         estimate D2E/DX2                !
 --------------------------------------------------------------------------------
 Trust Radius=3.00D-01 FncErr=5.00D-06 GrdErr=5.00D-06 EigMax=2.50D+02 EigMin=1.00D-04
 Number of steps in this run=    420 maximum allowed number of steps=    420.
 GradGradGradGradGradGradGradGradGradGradGradGradGradGradGradGradGradGrad

 Stoichiometry    C28H37NO4
 Framework group  C1[X(C28H37NO4)]
 Deg. of freedom   204
 Full point group                 C1      NOp   1
 Largest Abelian subgroup         C1      NOp   1
 Largest concise Abelian subgroup C1      NOp   1
                         Standard orientation:                         
 ---------------------------------------------------------------------
 Center     Atomic      Atomic             Coordinates (Angstroms)
 Number     Number       Type             X           Y           Z
 ---------------------------------------------------------------------
      1          6           0       -0.177037   -1.781749    3.498306
      2          8           0        0.886162   -0.916511    3.125882
      3          1           0        4.841723    0.940967   -0.463824
      4          6           0        6.695132   -0.737541   -1.390643
      5          6           0        5.016673   -0.088918   -3.112881
      6          6           0        5.198406   -0.740878   -1.738467
      7          6           0        2.303165   -3.285726    0.253020
      8          6           0        2.128105   -1.117943   -1.065004
      9          6           0        2.086543   -1.782559    0.327106
     10          1           0        3.035869    1.863955    0.403006
     11          1           0        2.554680    0.795188    2.365089
     12          8           0        1.009942    2.223652   -1.514608
     13          1           0       -0.623242    0.460375   -0.582440
     14          6           0       -6.667289   -0.459680   -0.208204
     15          6           0       -7.411149   -1.619963   -0.437077
     16          6           0       -6.865465   -2.662468   -1.182627
     17          6           0       -5.579017   -2.543232   -1.704084
     18          6           0       -4.834481   -1.382960   -1.474825
     19          8           0       -3.327484    3.318571    0.057050
     20          6           0       -5.366151   -0.334321   -0.712317
     21          6           0       -4.630394    0.913440   -0.467697
     22          6           0       -3.309096    0.970423   -0.235660
     23          6           0       -2.663712    2.284431    0.025449
     24          8           0        0.761127   -1.537996    0.851135
     25          6           0        2.868368    0.227099   -0.958166
     26          6           0        4.367443   -0.038522   -0.624008
     27          6           0        4.430773   -0.811011    0.710018
     28          6           0        3.040599   -1.054268    1.291920
     29          7           0       -1.300605    2.289500    0.219146
     30          6           0       -0.616519    3.549097    0.487514
     31          6           0        0.852901    3.177677    0.671263
     32          6           0        0.839748   -0.440507    1.771583
     33          6           0       -0.343455    0.490373    1.577087
     34          6           0       -0.344246    1.163872    0.208075
     35          6           0        0.986723    1.864276   -0.123091
     36          6           0        2.277396    1.088695    0.214397
     37          6           0        2.204656    0.218932    1.500585
     38          1           0        0.035164   -2.160162    4.502394
     39          1           0       -1.127002   -1.243296    3.540447
     40          1           0       -0.252012   -2.638707    2.823197
     41          1           0        7.274797   -1.243966   -2.170234
     42          1           0        7.076886    0.285137   -1.298970
     43          1           0        6.895148   -1.258324   -0.449747
     44          1           0        3.999922   -0.231520   -3.490914
     45          1           0        5.223722    0.985737   -3.072787
     46          1           0        5.693438   -0.535752   -3.849538
     47          1           0        4.884957   -1.788798   -1.821375
     48          1           0        2.196840   -3.742124    1.243471
     49          1           0        1.547568   -3.755117   -0.386906
     50          1           0        3.293747   -3.535016   -0.139223
     51          1           0        1.115322   -0.951834   -1.450378
     52          1           0        2.630989   -1.761758   -1.794238
     53          1           0        0.115073    2.522090   -1.763598
     54          1           0       -7.111529    0.344156    0.375233
     55          1           0       -8.417028   -1.707038   -0.034602
     56          1           0       -7.444813   -3.564249   -1.362740
     57          1           0       -5.156021   -3.350836   -2.295985
     58          1           0       -3.841913   -1.306461   -1.911227
     59          1           0       -5.229648    1.822721   -0.456392
     60          1           0       -2.712030    0.072131   -0.213270
     61          1           0        2.806229    0.772075   -1.903128
     62          1           0        4.929788   -1.778821    0.587507
     63          1           0        5.031505   -0.239867    1.428617
     64          1           0        3.136536   -1.603980    2.237272
     65          1           0       -1.039487    4.028419    1.376119
     66          1           0       -0.764418    4.213705   -0.371040
     67          1           0        1.503958    3.974582    0.297300
     68          1           0        1.071084    3.024775    1.734483
     69          1           0       -0.358513    1.231810    2.386995
     70          1           0       -1.282741   -0.064839    1.682291
 ---------------------------------------------------------------------
 Rotational constants (GHZ):           0.2116944           0.0701661           0.0651981
 Standard basis: 6-31G(d) (6D, 7F)
 There are   569 symmetry adapted cartesian basis functions of A   symmetry.
 There are   569 symmetry adapted basis functions of A   symmetry.
   569 basis functions,  1072 primitive gaussians,   569 cartesian basis functions
   122 alpha electrons      122 beta electrons
       nuclear repulsion energy      3643.0930279153 Hartrees.
 NAtoms=   70 NActive=   70 NUniq=   70 SFac= 1.00D+00 NAtFMM=   60 NAOKFM=T Big=T
 Integral buffers will be    131072 words long.
 Raffenetti 2 integral format.
 Two-electron integral symmetry is turned on.
 Nuclear repulsion after empirical dispersion term =     3642.9294021139 Hartrees.
 Using the following non-standard input for PCM:
 radii=UA0
 --- end of non-standard input.
 ------------------------------------------------------------------------------
 United Atom Topological Model (UA0  parameters set).
  Nord Group  Hybr  Charge Alpha Radius          Bonded to
    1   CH3   *     0.00   1.10  2.525   O2   [s]
    2   O     *     0.00   1.10  1.750   C1   [s]  C32  [s]
    4   CH3   *     0.00   1.10  2.525   C6   [s]
    5   CH3   *     0.00   1.10  2.525   C6   [s]
    6   CH    *     0.00   1.10  2.125   C4   [s]  C5   [s]  C26  [s]
    7   CH3   *     0.00   1.10  2.525   C9   [s]
    8   CH2   *     0.00   1.10  2.325   C9   [s]  C25  [s]
    9   C     *     0.00   1.10  1.925   C7   [s]  C8   [s]  O24  [s]  C28  [s]
   12   OH    *     0.00   1.10  1.850   C35  [s]
   14   CH    *     0.00   1.10  2.125   C15  [s]  C20  [s]
   15   CH    *     0.00   1.10  2.125   C14  [s]  C16  [s]
   16   CH    *     0.00   1.10  2.125   C15  [s]  C17  [s]
   17   CH    *     0.00   1.10  2.125   C16  [s]  C18  [s]
   18   CH    *     0.00   1.10  2.125   C17  [s]  C20  [s]
   19   O     *     0.00   1.10  1.750   C23  [d]
   20   C     *     0.00   1.10  1.925   C14  [s]  C18  [s]  C21  [s]
   21   CH    *     0.00   1.10  2.125   C20  [s]  C22  [d]
   22   CH    *     0.00   1.10  2.125   C21  [d]  C23  [s]
   23   C     *     0.00   1.10  1.925   O19  [d]  C22  [s]  N29  [s]
   24   O     *     0.00   1.10  1.750   C9   [s]  C32  [s]
   25   CH    *     0.00   1.10  2.125   C8   [s]  C26  [s]  C36  [s]
   26   CH    *     0.00   1.10  2.125   C6   [s]  C25  [s]  C27  [s]
   27   CH2   *     0.00   1.10  2.325   C26  [s]  C28  [s]
   28   CH    *     0.00   1.10  2.125   C9   [s]  C27  [s]  C37  [s]
   29   N     *     0.00   1.10  1.830   C23  [s]  C30  [s]  C34  [s]
   30   CH2   *     0.00   1.10  2.325   N29  [s]  C31  [s]
   31   CH2   *     0.00   1.10  2.325   C30  [s]  C35  [s]
   32   C     *     0.00   1.10  1.925   O2   [s]  O24  [s]  C33  [s]  C37  [s]
   33   CH2   *     0.00   1.10  2.325   C32  [s]  C34  [s]
   34   CH    *     0.00   1.10  2.125   N29  [s]  C33  [s]  C35  [s]
   35   C     *     0.00   1.10  1.925   O12  [s]  C31  [s]  C34  [s]  C36  [s]
   36   CH    *     0.00   1.10  2.125   C25  [s]  C35  [s]  C37  [s]
   37   CH    *     0.00   1.10  2.125   C28  [s]  C32  [s]  C36  [s]
 ------------------------------------------------------------------------------
 Polarizable Continuum Model (PCM)
 =================================
 Model                : PCM.
 Atomic radii         : UA0 (Simple United Atom Topological Model).
 Polarization charges : Total charges.
 Charge compensation  : None.
 Solution method      : On-the-fly selection.
 Cavity type          : Scaled VdW (van der Waals Surface) (Alpha=1.100).
 Cavity algorithm     : GePol (No added spheres)
                        Default sphere list used, NSphG=   33.
                        Lebedev-Laikov grids with approx.  5.0 points / Ang**2.
                        Smoothing algorithm: York/Karplus (Gamma=1.0000).
                        Polarization charges: spherical gaussians, with
                                              point-specific exponents (IZeta= 3).
                        Self-potential: point-specific (ISelfS= 7).
                        Self-field    : sphere-specific E.n sum rule (ISelfD= 2).
 1st derivatives      : Analytical E(r).r(x)/FMM algorithm (CHGder, D1EAlg=3).
                        Cavity 1st derivative terms included.
 Solvent              : Methanol, Eps=  32.613000 Eps(inf)=   1.765709
 ------------------------------------------------------------------------------
 One-electron integrals computed using PRISM.
 NBasis=   569 RedAO= T EigKep=  4.61D-04  NBF=   569
 NBsUse=   569 1.00D-06 EigRej= -1.00D+00 NBFU=   569
 ExpMin= 1.61D-01 ExpMax= 5.48D+03 ExpMxC= 8.25D+02 IAcc=3 IRadAn=         5 AccDes= 0.00D+00
 Harris functional with IExCor=  402 and IRadAn=       5 diagonalized for initial guess.
 HarFok:  IExCor=  402 AccDes= 0.00D+00 IRadAn=         5 IDoV= 1 UseB2=F ITyADJ=14
 ICtDFT=  3500011 ScaDFX=  1.000000  1.000000  1.000000  1.000000
 FoFCou: FMM=F IPFlag=           0 FMFlag=      100000 FMFlg1=        2001
         NFxFlg=           0 DoJE=T BraDBF=F KetDBF=T FulRan=T
         wScrn=  0.000000 ICntrl=       500 IOpCl=  0 I1Cent=   200000004 NGrid=           0
         NMat0=    1 NMatS0=      1 NMatT0=    0 NMatD0=    1 NMtDS0=    0 NMtDT0=    0
 Petite list used in FoFCou.
 Requested convergence on RMS density matrix=1.00D-08 within 128 cycles.
 Requested convergence on MAX density matrix=1.00D-06.
 Requested convergence on             energy=1.00D-06.
 No special actions if energy rises.
 Inv3:  Mode=1 IEnd=    44536827.
 Iteration    1 A*A^-1 deviation from unit magnitude is 3.44D-15 for    226.
 Iteration    1 A*A^-1 deviation from orthogonality  is 1.89D-15 for   2619      4.
 Iteration    1 A^-1*A deviation from unit magnitude is 3.66D-15 for   3066.
 Iteration    1 A^-1*A deviation from orthogonality  is 1.91D-15 for   1743    647.
 Error on total polarization charges =  0.00778
 SCF Done:  E(RB3LYP) =  -1445.07707032     A.U. after   13 cycles
            NFock= 13  Conv=0.92D-08     -V/T= 2.0094

 **********************************************************************

            Population analysis using the SCF density.

 **********************************************************************

 Orbital symmetries:
       Occupied  (A) (A) (A) (A) (A) (A) (A) (A) (A) (A) (A) (A)
                 (A) (A) (A) (A) (A) (A) (A) (A) (A) (A) (A) (A)
                 (A) (A) (A) (A) (A) (A) (A) (A) (A) (A) (A) (A)
                 (A) (A) (A) (A) (A) (A) (A) (A) (A) (A) (A) (A)
                 (A) (A) (A) (A) (A) (A) (A) (A) (A) (A) (A) (A)
                 (A) (A) (A) (A) (A) (A) (A) (A) (A) (A) (A) (A)
                 (A) (A) (A) (A) (A) (A) (A) (A) (A) (A) (A) (A)
                 (A) (A) (A) (A) (A) (A) (A) (A) (A) (A) (A) (A)
                 (A) (A) (A) (A) (A) (A) (A) (A) (A) (A) (A) (A)
                 (A) (A) (A) (A) (A) (A) (A) (A) (A) (A) (A) (A)
                 (A) (A)
       Virtual   (A) (A) (A) (A) (A) (A) (A) (A) (A) (A) (A) (A)
                 (A) (A) (A) (A) (A) (A) (A) (A) (A) (A) (A) (A)
                 (A) (A) (A) (A) (A) (A) (A) (A) (A) (A) (A) (A)
                 (A) (A) (A) (A) (A) (A) (A) (A) (A) (A) (A) (A)
                 (A) (A) (A) (A) (A) (A) (A) (A) (A) (A) (A) (A)
                 (A) (A) (A) (A) (A) (A) (A) (A) (A) (A) (A) (A)
                 (A) (A) (A) (A) (A) (A) (A) (A) (A) (A) (A) (A)
                 (A) (A) (A) (A) (A) (A) (A) (A) (A) (A) (A) (A)
                 (A) (A) (A) (A) (A) (A) (A) (A) (A) (A) (A) (A)
                 (A) (A) (A) (A) (A) (A) (A) (A) (A) (A) (A) (A)
                 (A) (A) (A) (A) (A) (A) (A) (A) (A) (A) (A) (A)
                 (A) (A) (A) (A) (A) (A) (A) (A) (A) (A) (A) (A)
                 (A) (A) (A) (A) (A) (A) (A) (A) (A) (A) (A) (A)
                 (A) (A) (A) (A) (A) (A) (A) (A) (A) (A) (A) (A)
                 (A) (A) (A) (A) (A) (A) (A) (A) (A) (A) (A) (A)
                 (A) (A) (A) (A) (A) (A) (A) (A) (A) (A) (A) (A)
                 (A) (A) (A) (A) (A) (A) (A) (A) (A) (A) (A) (A)
                 (A) (A) (A) (A) (A) (A) (A) (A) (A) (A) (A) (A)
                 (A) (A) (A) (A) (A) (A) (A) (A) (A) (A) (A) (A)
                 (A) (A) (A) (A) (A) (A) (A) (A) (A) (A) (A) (A)
                 (A) (A) (A) (A) (A) (A) (A) (A) (A) (A) (A) (A)
                 (A) (A) (A) (A) (A) (A) (A) (A) (A) (A) (A) (A)
                 (A) (A) (A) (A) (A) (A) (A) (A) (A) (A) (A) (A)
                 (A) (A) (A) (A) (A) (A) (A) (A) (A) (A) (A) (A)
                 (A) (A) (A) (A) (A) (A) (A) (A) (A) (A) (A) (A)
                 (A) (A) (A) (A) (A) (A) (A) (A) (A) (A) (A) (A)
                 (A) (A) (A) (A) (A) (A) (A) (A) (A) (A) (A) (A)
                 (A) (A) (A) (A) (A) (A) (A) (A) (A) (A) (A) (A)
                 (A) (A) (A) (A) (A) (A) (A) (A) (A) (A) (A) (A)
                 (A) (A) (A) (A) (A) (A) (A) (A) (A) (A) (A) (A)
                 (A) (A) (A) (A) (A) (A) (A) (A) (A) (A) (A) (A)
                 (A) (A) (A) (A) (A) (A) (A) (A) (A) (A) (A) (A)
                 (A) (A) (A) (A) (A) (A) (A) (A) (A) (A) (A) (A)
                 (A) (A) (A) (A) (A) (A) (A) (A) (A) (A) (A) (A)
                 (A) (A) (A) (A) (A) (A) (A) (A) (A) (A) (A) (A)
                 (A) (A) (A) (A) (A) (A) (A) (A) (A) (A) (A) (A)
                 (A) (A) (A) (A) (A) (A) (A) (A) (A) (A) (A) (A)
                 (A) (A) (A)
 The electronic state is 1-A.
 Alpha  occ. eigenvalues --  -19.14698 -19.14681 -19.14531 -19.10994 -14.36154
 Alpha  occ. eigenvalues --  -10.28570 -10.28396 -10.24810 -10.23440 -10.22995
 Alpha  occ. eigenvalues --  -10.22020 -10.21636 -10.20376 -10.20155 -10.19274
 Alpha  occ. eigenvalues --  -10.19248 -10.19232 -10.19219 -10.19139 -10.19106
 Alpha  occ. eigenvalues --  -10.19053 -10.18934 -10.18671 -10.18524 -10.18231
 Alpha  occ. eigenvalues --  -10.18188 -10.17864 -10.17806 -10.17486 -10.17201
 Alpha  occ. eigenvalues --  -10.17041 -10.16727 -10.16654  -1.06276  -1.03401
 Alpha  occ. eigenvalues --   -1.02153  -1.00222  -0.94020  -0.86088  -0.85689
 Alpha  occ. eigenvalues --   -0.81538  -0.80123  -0.79370  -0.77987  -0.76246
 Alpha  occ. eigenvalues --   -0.75170  -0.74599  -0.73622  -0.72888  -0.71544
 Alpha  occ. eigenvalues --   -0.68449  -0.67614  -0.67492  -0.65676  -0.62812
 Alpha  occ. eigenvalues --   -0.61564  -0.60727  -0.60370  -0.59762  -0.58806
 Alpha  occ. eigenvalues --   -0.57090  -0.55404  -0.54339  -0.53586  -0.52147
 Alpha  occ. eigenvalues --   -0.51461  -0.51339  -0.50361  -0.49995  -0.49614
 Alpha  occ. eigenvalues --   -0.47734  -0.47003  -0.46390  -0.45795  -0.45332
 Alpha  occ. eigenvalues --   -0.44768  -0.44024  -0.43820  -0.43125  -0.42788
 Alpha  occ. eigenvalues --   -0.42362  -0.42159  -0.42009  -0.41818  -0.41712
 Alpha  occ. eigenvalues --   -0.41189  -0.40554  -0.39960  -0.39571  -0.39251
 Alpha  occ. eigenvalues --   -0.39037  -0.38437  -0.37952  -0.37694  -0.37622
 Alpha  occ. eigenvalues --   -0.37170  -0.36976  -0.36360  -0.35628  -0.35413
 Alpha  occ. eigenvalues --   -0.35258  -0.34793  -0.34394  -0.34301  -0.34201
 Alpha  occ. eigenvalues --   -0.33833  -0.32930  -0.32750  -0.32406  -0.31759
 Alpha  occ. eigenvalues --   -0.30159  -0.29226  -0.29134  -0.28396  -0.27650
 Alpha  occ. eigenvalues --   -0.27091  -0.26352  -0.25404  -0.25219  -0.25133
 Alpha  occ. eigenvalues --   -0.23920  -0.23097
 Alpha virt. eigenvalues --   -0.05129  -0.00414   0.01919   0.06337   0.07907
 Alpha virt. eigenvalues --    0.08080   0.08636   0.09264   0.09713   0.10332
 Alpha virt. eigenvalues --    0.10575   0.11620   0.12087   0.12591   0.12696
 Alpha virt. eigenvalues --    0.13048   0.13088   0.14017   0.14305   0.14710
 Alpha virt. eigenvalues --    0.14952   0.15135   0.15553   0.15622   0.15966
 Alpha virt. eigenvalues --    0.16155   0.16407   0.16659   0.16850   0.17227
 Alpha virt. eigenvalues --    0.17637   0.18070   0.18236   0.18575   0.18749
 Alpha virt. eigenvalues --    0.18961   0.19223   0.19416   0.19998   0.20127
 Alpha virt. eigenvalues --    0.20411   0.20710   0.21477   0.21609   0.21981
 Alpha virt. eigenvalues --    0.22613   0.23015   0.23366   0.24045   0.24577
 Alpha virt. eigenvalues --    0.24891   0.25071   0.25253   0.25807   0.26064
 Alpha virt. eigenvalues --    0.26743   0.27093   0.27437   0.27640   0.28086
 Alpha virt. eigenvalues --    0.28893   0.29924   0.30276   0.30608   0.30876
 Alpha virt. eigenvalues --    0.31394   0.31519   0.32573   0.32768   0.32832
 Alpha virt. eigenvalues --    0.34889   0.35677   0.36393   0.38658   0.38968
 Alpha virt. eigenvalues --    0.39903   0.41128   0.43024   0.47653   0.49736
 Alpha virt. eigenvalues --    0.50116   0.50855   0.51642   0.51940   0.52186
 Alpha virt. eigenvalues --    0.52634   0.53160   0.53632   0.53723   0.54336
 Alpha virt. eigenvalues --    0.54987   0.55272   0.55766   0.56816   0.57128
 Alpha virt. eigenvalues --    0.57391   0.57459   0.57722   0.58237   0.58851
 Alpha virt. eigenvalues --    0.59333   0.59553   0.59823   0.60057   0.60282
 Alpha virt. eigenvalues --    0.60500   0.61223   0.61611   0.62154   0.62590
 Alpha virt. eigenvalues --    0.62770   0.62938   0.63644   0.63766   0.64437
 Alpha virt. eigenvalues --    0.65298   0.65864   0.66228   0.66594   0.67304
 Alpha virt. eigenvalues --    0.67752   0.68850   0.69075   0.69956   0.70404
 Alpha virt. eigenvalues --    0.70820   0.71536   0.72148   0.73278   0.73406
 Alpha virt. eigenvalues --    0.74344   0.74928   0.75844   0.76516   0.76975
 Alpha virt. eigenvalues --    0.78112   0.78941   0.79527   0.79944   0.80517
 Alpha virt. eigenvalues --    0.81216   0.81541   0.82086   0.83115   0.83348
 Alpha virt. eigenvalues --    0.84065   0.84166   0.84275   0.84681   0.84837
 Alpha virt. eigenvalues --    0.85098   0.85837   0.85985   0.86162   0.86359
 Alpha virt. eigenvalues --    0.87100   0.87504   0.87803   0.88212   0.88638
 Alpha virt. eigenvalues --    0.89474   0.89727   0.89826   0.90374   0.90507
 Alpha virt. eigenvalues --    0.90907   0.91174   0.91912   0.92239   0.92487
 Alpha virt. eigenvalues --    0.92786   0.92842   0.93496   0.93667   0.94012
 Alpha virt. eigenvalues --    0.94488   0.94722   0.95323   0.95601   0.96353
 Alpha virt. eigenvalues --    0.97111   0.97151   0.97437   0.97832   0.98652
 Alpha virt. eigenvalues --    0.99017   0.99407   0.99628   1.00422   1.01215
 Alpha virt. eigenvalues --    1.01470   1.01751   1.02771   1.03745   1.04351
 Alpha virt. eigenvalues --    1.05762   1.05899   1.06460   1.08461   1.09091
 Alpha virt. eigenvalues --    1.09683   1.10278   1.12061   1.12224   1.12582
 Alpha virt. eigenvalues --    1.13575   1.14411   1.14708   1.15397   1.17513
 Alpha virt. eigenvalues --    1.18337   1.18939   1.19951   1.21020   1.22960
 Alpha virt. eigenvalues --    1.24654   1.25565   1.27611   1.28119   1.29075
 Alpha virt. eigenvalues --    1.30601   1.31504   1.32094   1.33193   1.34663
 Alpha virt. eigenvalues --    1.35633   1.36464   1.39075   1.39317   1.40216
 Alpha virt. eigenvalues --    1.41045   1.42831   1.43607   1.44349   1.44481
 Alpha virt. eigenvalues --    1.45824   1.47297   1.47404   1.48644   1.49155
 Alpha virt. eigenvalues --    1.49510   1.50284   1.51191   1.52821   1.54177
 Alpha virt. eigenvalues --    1.54956   1.56145   1.57103   1.59115   1.60081
 Alpha virt. eigenvalues --    1.61774   1.62213   1.63779   1.64513   1.66217
 Alpha virt. eigenvalues --    1.66337   1.67904   1.68889   1.70324   1.71747
 Alpha virt. eigenvalues --    1.73103   1.73892   1.74566   1.75791   1.77109
 Alpha virt. eigenvalues --    1.77256   1.77528   1.78553   1.79071   1.79839
 Alpha virt. eigenvalues --    1.80170   1.81113   1.81260   1.81859   1.82217
 Alpha virt. eigenvalues --    1.82525   1.83541   1.85235   1.85770   1.85821
 Alpha virt. eigenvalues --    1.88001   1.88562   1.89140   1.89360   1.89991
 Alpha virt. eigenvalues --    1.90146   1.91234   1.91595   1.92060   1.93202
 Alpha virt. eigenvalues --    1.94045   1.94280   1.94795   1.95566   1.95797
 Alpha virt. eigenvalues --    1.97096   1.97440   1.98446   1.98843   1.99920
 Alpha virt. eigenvalues --    2.00566   2.00917   2.01732   2.02577   2.02986
 Alpha virt. eigenvalues --    2.03385   2.03968   2.04602   2.05257   2.06003
 Alpha virt. eigenvalues --    2.07201   2.07589   2.08018   2.09477   2.10046
 Alpha virt. eigenvalues --    2.10651   2.11110   2.11813   2.12666   2.13535
 Alpha virt. eigenvalues --    2.13989   2.14061   2.14754   2.15975   2.16077
 Alpha virt. eigenvalues --    2.17243   2.19073   2.20095   2.20789   2.21003
 Alpha virt. eigenvalues --    2.22049   2.22301   2.23168   2.23920   2.24991
 Alpha virt. eigenvalues --    2.25399   2.26055   2.26975   2.27725   2.28053
 Alpha virt. eigenvalues --    2.28867   2.29980   2.30347   2.30611   2.31642
 Alpha virt. eigenvalues --    2.32277   2.33405   2.33659   2.34575   2.35495
 Alpha virt. eigenvalues --    2.36898   2.38488   2.40464   2.41004   2.42066
 Alpha virt. eigenvalues --    2.43703   2.44202   2.45623   2.46224   2.47208
 Alpha virt. eigenvalues --    2.48531   2.49191   2.50646   2.52277   2.52687
 Alpha virt. eigenvalues --    2.53728   2.54468   2.54890   2.56627   2.57843
 Alpha virt. eigenvalues --    2.57993   2.59020   2.60232   2.60907   2.62620
 Alpha virt. eigenvalues --    2.64077   2.64773   2.65929   2.66774   2.68351
 Alpha virt. eigenvalues --    2.69068   2.69302   2.70876   2.72092   2.73487
 Alpha virt. eigenvalues --    2.74138   2.74258   2.74470   2.75453   2.76402
 Alpha virt. eigenvalues --    2.77977   2.81195   2.82224   2.83280   2.85303
 Alpha virt. eigenvalues --    2.85393   2.86123   2.86519   2.89262   2.89649
 Alpha virt. eigenvalues --    2.92112   2.92688   2.94730   2.96807   3.00457
 Alpha virt. eigenvalues --    3.01162   3.06614   3.09159   3.11024   3.12291
 Alpha virt. eigenvalues --    3.17500   3.21476   3.26914   3.42055   3.96792
 Alpha virt. eigenvalues --    4.04652   4.08649   4.09945   4.11249   4.11754
 Alpha virt. eigenvalues --    4.15543   4.16148   4.18014   4.20999   4.25050
 Alpha virt. eigenvalues --    4.26788   4.29159   4.29797   4.31102   4.32660
 Alpha virt. eigenvalues --    4.33930   4.36763   4.40561   4.42138   4.45871
 Alpha virt. eigenvalues --    4.51033   4.52412   4.57998   4.65680   4.67334
 Alpha virt. eigenvalues --    4.70030   4.72458   4.78294   4.83222   4.85637
 Alpha virt. eigenvalues --    4.94328   5.05751
          Condensed to atoms (all electrons):
 Mulliken charges:
               1
     1  C   -0.218950
     2  O   -0.528884
     3  H    0.121683
     4  C   -0.452287
     5  C   -0.454842
     6  C   -0.087966
     7  C   -0.481895
     8  C   -0.309264
     9  C    0.343877
    10  H    0.147746
    11  H    0.152260
    12  O   -0.687391
    13  H    0.182912
    14  C   -0.195019
    15  C   -0.147921
    16  C   -0.140008
    17  C   -0.148382
    18  C   -0.186944
    19  O   -0.583059
    20  C    0.127219
    21  C   -0.160574
    22  C   -0.215547
    23  C    0.590288
    24  O   -0.576382
    25  C   -0.118997
    26  C   -0.074235
    27  C   -0.299598
    28  C   -0.127668
    29  N   -0.488796
    30  C   -0.134794
    31  C   -0.329372
    32  C    0.583095
    33  C   -0.317671
    34  C   -0.019500
    35  C    0.317650
    36  C   -0.149202
    37  C   -0.187517
    38  H    0.156763
    39  H    0.141717
    40  H    0.155061
    41  H    0.141090
    42  H    0.139646
    43  H    0.146175
    44  H    0.146661
    45  H    0.140835
    46  H    0.139004
    47  H    0.128512
    48  H    0.148739
    49  H    0.150026
    50  H    0.152204
    51  H    0.152219
    52  H    0.143699
    53  H    0.428127
    54  H    0.153646
    55  H    0.152708
    56  H    0.151535
    57  H    0.152970
    58  H    0.151952
    59  H    0.169693
    60  H    0.165651
    61  H    0.142757
    62  H    0.143987
    63  H    0.142517
    64  H    0.142134
    65  H    0.165158
    66  H    0.162357
    67  H    0.165212
    68  H    0.159796
    69  H    0.163609
    70  H    0.159772
 Sum of Mulliken charges =  -0.00000
 Mulliken charges with hydrogens summed into heavy atoms:
               1
     1  C    0.234591
     2  O   -0.528884
     4  C   -0.025376
     5  C   -0.028342
     6  C    0.040546
     7  C   -0.030926
     8  C   -0.013346
     9  C    0.343877
    12  O   -0.259264
    14  C   -0.041373
    15  C    0.004787
    16  C    0.011528
    17  C    0.004588
    18  C   -0.034991
    19  O   -0.583059
    20  C    0.127219
    21  C    0.009119
    22  C   -0.049896
    23  C    0.590288
    24  O   -0.576382
    25  C    0.023760
    26  C    0.047448
    27  C   -0.013095
    28  C    0.014467
    29  N   -0.488796
    30  C    0.192721
    31  C   -0.004363
    32  C    0.583095
    33  C    0.005710
    34  C    0.163412
    35  C    0.317650
    36  C   -0.001457
    37  C   -0.035256
 Electronic spatial extent (au):  <R**2>=          17624.3791
 Charge=             -0.0000 electrons
 Dipole moment (field-independent basis, Debye):
    X=              2.3054    Y=             -3.2501    Z=              0.1640  Tot=              3.9881
 Quadrupole moment (field-independent basis, Debye-Ang):
   XX=           -189.5522   YY=           -200.2484   ZZ=           -197.4119
   XY=             18.4172   XZ=              0.4827   YZ=              4.9117
 Traceless Quadrupole moment (field-independent basis, Debye-Ang):
   XX=              6.1853   YY=             -4.5109   ZZ=             -1.6744
   XY=             18.4172   XZ=              0.4827   YZ=              4.9117
 Octapole moment (field-independent basis, Debye-Ang**2):
  XXX=            -71.3321  YYY=            -43.6506  ZZZ=             18.0893  XYY=             43.1460
  XXY=            -99.2838  XXZ=             20.8902  XZZ=             -5.9274  YZZ=             -5.3496
  YYZ=              0.6985  XYZ=              0.3123
 Hexadecapole moment (field-independent basis, Debye-Ang**3):
 XXXX=         -16121.6103 YYYY=          -4116.3017 ZZZZ=          -2690.8084 XXXY=            459.5492
 XXXZ=           -127.6994 YYYX=            296.3080 YYYZ=              4.1984 ZZZX=            -51.8170
 ZZZY=            -54.9375 XXYY=          -3550.3754 XXZZ=          -3421.0462 YYZZ=          -1052.3556
 XXYZ=            101.0340 YYXZ=             91.2085 ZZXY=            -10.1490
 N-N= 3.642929402114D+03 E-N=-1.064406439391D+04  KE= 1.431618797824D+03
 D1PCM: PCM CHGder 1st derivatives, ID1Alg=3 FixD1E=F DoIter=F DoCFld=F I1PDM=0.
 Calling FoFJK, ICntrl=      2127 FMM=T ISym2X=0 I1Cent= 0 IOpClX= 0 NMat=1 NMatS=1 NMatT=0.
 ***** Axes restored to original set *****
 -------------------------------------------------------------------
 Center     Atomic                   Forces (Hartrees/Bohr)
 Number     Number              X              Y              Z
 -------------------------------------------------------------------
      1        6          -0.002271651   -0.000663507   -0.000857684
      2        8          -0.000038187    0.004302574    0.003832706
      3        1           0.002425617    0.000757707    0.001289126
      4        6          -0.001757323   -0.003874706   -0.001293572
      5        6           0.003153099   -0.004016182    0.001382821
      6        6           0.002282927    0.005262913   -0.002277476
      7        6           0.000655214   -0.007374119   -0.002343674
      8        6           0.000177653    0.012233925    0.002515165
      9        6          -0.002573254   -0.007212588    0.013352371
     10        1           0.001094241   -0.002101231    0.000306195
     11        1           0.003314709   -0.004202288   -0.000981062
     12        8          -0.003653006   -0.003523225    0.004800121
     13        1          -0.004066463    0.000610862    0.000054750
     14        6           0.004949788   -0.007940875    0.000341408
     15        6          -0.000400668    0.002562095   -0.003685819
     16        6           0.000597176   -0.003468753    0.001554126
     17        6          -0.001880485    0.003858803   -0.000868393
     18        6          -0.003350334   -0.005443066    0.005912477
     19        8           0.005052209    0.010224371   -0.009620637
     20        6           0.003774786    0.004721388   -0.001014436
     21        6          -0.003342766   -0.006418771    0.004008577
     22        6           0.003130129    0.006452296   -0.003693446
     23        6          -0.014462346   -0.005064382    0.013885418
     24        8          -0.000069361    0.003541542   -0.017662328
     25        6          -0.004672096    0.000333347    0.000592669
     26        6           0.003166378    0.001884970    0.004472872
     27        6          -0.002911847    0.000205092   -0.002547568
     28        6           0.000049235    0.004041094    0.002272045
     29        7           0.007962756   -0.003833792    0.001694888
     30        6           0.005241866    0.004081602   -0.008960610
     31        6          -0.000807964   -0.002563168   -0.006084318
     32        6          -0.000717045   -0.002050563   -0.004928369
     33        6           0.001733786   -0.010241598    0.001312732
     34        6           0.005759246   -0.005134702   -0.002398498
     35        6           0.003977443    0.006901202   -0.001077389
     36        6           0.000449978    0.007834735    0.011607252
     37        6          -0.006950987   -0.002939106   -0.004210571
     38        1          -0.001659874    0.003584779   -0.000340220
     39        1           0.003559189   -0.002676021    0.000134927
     40        1           0.002718060    0.000564396    0.001374200
     41        1           0.000429054    0.000230232    0.000314675
     42        1           0.000572208    0.000987603   -0.000701500
     43        1          -0.001137532    0.000210569   -0.001380206
     44        1           0.001823354    0.001109460   -0.000849740
     45        1           0.000487655    0.001042642   -0.000710937
     46        1          -0.000988494    0.000603091   -0.000094419
     47        1           0.000268758   -0.002710023   -0.000981609
     48        1          -0.001229904    0.001649334   -0.001239154
     49        1           0.000958524    0.002113677    0.001720490
     50        1           0.000710781    0.001499901   -0.000096631
     51        1          -0.003074401   -0.004121438   -0.001584434
[...]
 ,0.00000140,-0.00000116,0.00001299,-0.00001300,-0.00000184,0.00001018,
 -0.00001276,0.00001414,-0.00001391,0.00004739,0.00000393,0.00003156,-0
 .00003571,0.00001261,0.00011952,-0.00008561,-0.00006144,-0.00003840,0.
 00034805,-0.00044394,-0.00002829,0.00049929,0.00009476,0.00029017,-0.0
 0215449,0.00234126,-0.00973426,0.00017049,-0.00005324,-0.00002256,-0.0
 0000246,-0.00000434,0.00000504,-0.00000150,-0.00000013,0.00000053,0.00
 000017,-0.00000412,0.00000294,0.00000292,-0.00000219,-0.00000112,0.000
 00358,-0.00000176,-0.00000075,-0.00004558,-0.00008605,-0.00002077,0.00
 000737,0.00000577,0.00000513,-0.00000777,0.00000001,0.00001034,0.00001
 904,-0.00000289,-0.00003241,0.00000849,-0.00010547,0.00010252,-0.00006
 998,-0.00013583,0.00026107,-0.00006790,-0.00021798,0.00002291,0.000030
 80,0.00003042,0.00004391,0.00001877,-0.00006375,0.00001695,0.00031630,
 0.00004018,0.00004115,0.00038613,0.00059635,-0.00009473,0.01222680,0.0
 0416417,0.00754797,-0.12058753,-0.04694461,-0.15255350,0.00019643,0.00
 051346,-0.00021545,-0.00028004,-0.00001853,-0.00037423,0.00005558,-0.0
 0011092,0.00025444,-0.02026026,-0.01256648,-0.01363202,-0.00094653,-0.
 00023865,0.00081079,-0.00006097,0.00026786,-0.00029925,-0.00000888,-0.
 00002422,-0.00000789,0.00001581,-0.00001232,-0.00000249,0.00000987,-0.
 00001533,0.00000738,-0.00000499,0.00000542,0.00000501,-0.00000026,0.00
 000226,-0.00000098,0.00000577,-0.00000088,-0.00000184,-0.00000161,-0.0
 0000232,0.00000070,0.00000006,0.00000324,-0.00000066,0.00000194,0.0000
 0468,0.00000541,0.00000219,-0.00000026,-0.00000099,0.00000211,0.000001
 87,-0.00000553,-0.00000613,-0.00002444,0.00001649,-0.00000860,-0.00000
 105,0.00000973,0.00001038,-0.00004768,0.00001633,0.00001779,-0.0000322
 1,0.00003397,0.00094857,-0.00011608,0.00009522,-0.00000040,0.00000051,
 -0.00000033,0.00000071,-0.00000099,0.00000004,0.00000007,-0.00000041,0
 .00000012,-0.00000043,-0.00000091,0.00000053,-0.00000002,0.00000006,-0
 .00000124,-0.00000840,-0.00000561,-0.00000633,0.00000223,-0.00000817,-
 0.00000227,-0.00011981,0.00010016,0.00024435,-0.00001890,0.00002718,0.
 00002983,0.00000290,0.00001739,-0.00000437,-0.00001897,-0.00001964,0.0
 0001306,-0.00017917,0.00061300,0.00122631,0.00279242,-0.00097231,-0.00
 010131,-0.00101248,-0.00061480,-0.00115753,0.12777303,0.05420771,0.165
 96910,0.00004248,-0.00044457,-0.00001143,0.00140320,0.00093098,-0.0007
 0734,-0.00000797,0.00001765,-0.00000007,0.00000443,0.00000109,0.000000
 56,-0.00000331,-0.00000140,0.00000338,0.00000595,-0.00000685,-0.000002
 67,-0.00040896,0.00052930,0.00045446,-0.00016931,0.00000275,0.00003586
 ,0.00033493,-0.00216347,-0.00018865,0.00009143,0.00003565,-0.00001257,
 -0.00030896,0.00026987,0.00002576,0.00004162,-0.00040445,0.00015016,-0
 .00208561,-0.00324211,-0.00173498,0.00000023,0.00000309,-0.00000255,-0
 .00000016,-0.00000062,0.00000125,0.00000222,0.00000226,-0.00000292,-0.
 00000589,0.00000326,0.00000263,0.00001113,-0.00000633,-0.00000208,0.00
 017021,-0.00004625,-0.00013740,0.00000239,-0.00000903,-0.00000639,-0.0
 0002488,-0.00009745,0.00007814,0.00009693,0.00007410,-0.00015598,-0.00
 065857,0.00041620,0.00014641,-0.00569458,0.00019894,0.00627698,0.00003
 538,-0.00004518,0.00006649,-0.00000031,-0.00001582,-0.00002562,-0.0000
 1391,0.00008208,-0.00015093,0.00018663,-0.00028387,0.00003412,0.001953
 25,0.00117074,-0.00021295,-0.00031194,-0.00059709,-0.00005275,0.000154
 40,-0.00008703,-0.00015657,0.00562243,-0.01105498,0.02733725,-0.052365
 58,0.01111763,-0.02673399,-0.00502059,0.00646520,-0.02032463,0.0000560
 6,0.00065136,0.00031982,-0.00020394,-0.00011316,0.00002054,0.00091202,
 0.00012176,-0.00087404,0.00001277,0.00001880,-0.00001132,-0.00010807,-
 0.00000751,0.00006204,-0.00001990,0.00023239,0.00002809,-0.00000199,0.
 00000273,0.00000354,-0.00000218,0.00000312,-0.00000042,0.00000271,-0.0
 0000075,-0.00000140,-0.00000355,-0.00000342,-0.00000375,0.00000024,0.0
 0000275,-0.00000011,0.00000011,0.00000376,0.00000445,0.00000544,0.0000
 0695,-0.00001162,0.00002166,0.00001270,-0.00003523,0.00003587,0.000001
 01,-0.00002257,-0.00014344,-0.00016880,0.00021594,0.00000873,-0.000043
 83,0.00000934,0.00004896,0.00007619,0.00005803,0.00010883,0.00015790,-
 0.00005175,0.,-0.00000019,0.00000007,-0.00000066,0.00000064,-0.0000000
 7,-0.00000059,0.00000058,-0.00000014,0.00000030,0.00000021,-0.00000039
 ,-0.00000405,-0.00000377,0.00000557,-0.00001798,0.00002760,0.00001333,
 0.00012413,-0.00015585,0.00011328,-0.00001548,0.00004821,-0.00000036,0
 .00003002,-0.00003177,-0.00001325,-0.00002991,0.00005405,0.00002215,-0
 .00001232,0.00002048,0.00000721,-0.00018131,-0.00023316,0.00014987,0.0
 0002606,0.00001984,0.00004931,0.00002080,0.00001837,0.00012995,0.00027
 899,0.00015460,0.00007161,0.05739466,-0.00013160,-0.00016337,0.0002034
 5,-0.00034518,0.00001064,-0.00028624,0.00000167,0.00000576,-0.00000216
 ,0.00000139,-0.00000100,0.00000508,-0.00000259,-0.00000157,0.00000386,
 -0.00000025,0.00000178,-0.00000934,-0.00007411,0.00009678,0.00005197,-
 0.00008264,0.00000146,0.00000193,0.00003276,-0.00035281,-0.00034708,0.
 00005923,0.00001020,0.00000341,0.00003779,0.00005912,-0.00003707,0.000
 06858,-0.00035531,0.00039909,-0.00226256,-0.00212876,-0.00183605,-0.00
 000773,-0.00000947,0.00001239,-0.00000448,0.00000112,0.00000233,-0.000
 00239,-0.00001232,0.00000922,0.00001473,-0.00000885,-0.00000426,0.0000
 0002,0.00000483,-0.00000390,0.00010906,0.00000387,-0.00017875,0.000000
 47,0.00000416,0.00000404,-0.00003282,0.00008045,-0.00000636,0.00007053
 ,-0.00006221,0.00012401,-0.00023935,0.00016038,0.00031676,-0.00079893,
 0.00174621,0.00119306,-0.00000152,0.00000506,-0.00000525,-0.00000261,-
 0.00002087,0.00000385,-0.00003258,-0.00001020,-0.00003756,-0.00010292,
 0.00005509,0.00017966,0.00154709,0.00112736,-0.00010852,-0.00031924,-0
 .00007429,0.00008592,-0.00037642,-0.00144907,-0.00044408,0.00132110,-0
 .00185233,0.00093884,0.00995267,-0.07979389,0.08298923,-0.00315002,0.0
 0694137,-0.02094502,0.00022234,0.00085515,-0.00027222,-0.00007585,-0.0
 0017306,-0.00001834,-0.00010671,0.00013757,-0.00008966,0.00000979,0.00
 002488,-0.00008745,0.00007875,-0.00018317,-0.00001673,0.00011376,0.000
 10784,-0.00012351,-0.00000197,0.00000283,0.00000278,-0.00000033,0.0000
 0160,-0.00000040,0.00000296,-0.00000057,-0.00000113,-0.00000160,-0.000
 00062,-0.00000192,0.00000036,0.00000078,-0.00000045,0.00000023,0.00000
 254,0.00000323,0.00000093,0.00000111,-0.00000208,-0.00000021,-0.000009
 18,-0.00000372,0.00000702,-0.00000909,-0.00000478,-0.00002203,-0.00003
 506,0.00002838,0.00002607,-0.00003095,0.00002972,0.00002680,0.00001699
 ,0.00001878,0.00007646,0.00012915,-0.00004570,-0.00000021,0.00000111,-
 0.00000094,0.00000246,-0.00000253,0.00000006,0.00000072,-0.00000138,0.
 00000055,-0.00000137,-0.00000143,0.00000170,-0.00000114,0.00000135,-0.
 00000907,-0.00001052,-0.00000824,-0.00001411,-0.00007210,-0.00003011,-
 0.00007392,-0.00000282,0.00001320,0.00001423,-0.00000433,0.00000327,0.
 00001386,-0.00001322,0.00002272,0.00000616,-0.00001573,-0.00001288,0.0
 0000122,-0.00009739,-0.00013099,0.00005336,0.00010987,-0.00002829,0.00
 002672,0.00000325,0.00006224,0.00003874,0.00004684,-0.00163549,0.00005
 183,-0.00781402,0.08617981,0.00005658,0.00055134,0.00017391,-0.0010403
 0,-0.00116055,0.00184508,0.00001362,-0.00001509,-0.00000027,-0.0000049
 2,-0.00000083,-0.00000155,0.00000143,0.00000347,-0.00000331,-0.0000024
 3,0.00000764,0.00000408,0.00030355,-0.00034498,-0.00026380,0.00003392,
 0.00004455,-0.00004356,-0.00045717,0.00137349,0.00065810,0.00005789,-0
 .00005465,-0.00005255,0.00036741,-0.00030016,0.00010141,0.00005967,-0.
 00066185,0.00027714,-0.00128988,-0.00221224,-0.00031079,-0.00000257,-0
 .00000194,0.00000377,-0.00000267,0.00000083,0.00000136,-0.00000027,-0.
 00000322,0.00000231,0.00000146,-0.00000231,0.00000006,0.00001009,-0.00
 000262,-0.00000486,-0.00002175,-0.00003252,-0.00003935,0.00000474,0.00
 000137,0.00000155,-0.00003498,-0.00002718,0.00004284,0.00008451,0.0000
 0980,-0.00005625,-0.00047751,0.00018199,0.00025400,0.00349232,-0.00063
 765,-0.00233951,-0.00004474,0.00008310,-0.00003906,-0.00000666,0.00000
 796,0.00002283,0.00000702,-0.00004000,0.00010960,0.00007880,0.00009333
 ,-0.00014323,0.00181892,0.00045250,0.00172006,-0.00073397,-0.00025101,
 0.00009990,-0.00063674,0.00059008,-0.00046941,-0.00400359,0.00478396,-
 0.01390332,-0.02494436,0.08166043,-0.27813995,-0.00209105,0.00548229,-
 0.01654093,-0.00053350,0.00097845,-0.00073000,0.00007480,-0.00023165,0
 .00000351,-0.00041158,0.00008801,0.00050649,0.00000318,-0.00001031,0.0
 0000104,0.00010030,0.00017033,-0.00016465,-0.00001252,-0.00013323,0.00
 003179,0.00000250,-0.00000277,-0.00000363,0.00000221,-0.00000320,0.000
 00051,-0.00000177,0.00000098,0.00000165,0.00000424,0.00000273,0.000004
 65,-0.00000030,-0.00000280,0.00000044,0.00000048,-0.00000394,-0.000004
 41,-0.00000577,-0.00000727,0.00001011,-0.00001940,-0.00000348,0.000019
 88,-0.00002715,-0.00000540,0.00002617,0.00007357,0.00010714,-0.0001268
 5,0.00003991,-0.00000551,0.00009783,0.00001312,-0.00006199,-0.00004319
 ,0.00009284,0.00011882,-0.00006813,-0.00000046,0.00000009,-0.00000021,
 0.00000021,-0.00000041,-0.00000005,-0.00000025,0.00000013,0.00000019,-
 0.00000003,-0.00000110,0.00000053,-0.00000137,-0.00000263,0.00000121,-
 0.00001990,0.00001183,-0.00000218,0.00002993,-0.00010506,0.00004194,0.
 00000187,-0.00002670,0.00003144,-0.00001676,0.00002114,0.00000432,0.00
 002541,-0.00003855,-0.00001596,0.00000372,-0.00001858,0.00000755,-0.00
 008821,-0.00012213,0.00016753,0.00007752,-0.00010633,0.00006997,0.0003
 5682,0.00012345,0.00039414,0.00075039,0.00022903,0.00076596,0.02886899
 ,-0.09016918,0.30351193,-0.00114027,0.00010594,0.00023258,0.00205610,-
 0.00141373,-0.00027413,0.00001665,0.00002410,0.00000300,-0.00000510,-0
 .00000909,0.00000864,-0.00001491,-0.00000148,0.00002382,0.00003047,0.0
 0001766,-0.00003215,0.00016602,-0.00007862,-0.00001515,0.00003079,-0.0
 0001682,-0.00008266,-0.00027804,0.00031965,-0.00006298,0.00014370,0.00
 007045,0.00002695,-0.00003493,0.00010340,-0.00008923,-0.00002185,-0.00
 184478,-0.00099911,0.00080204,0.00091709,0.00046021,-0.00002594,-0.000
 00777,0.00002081,-0.00000145,-0.00001060,0.00000922,0.00000219,-0.0000
 1106,0.00000729,0.00002084,-0.00000778,0.00000110,0.00000721,-0.000015
 01,-0.00000612,0.00001046,0.00014239,-0.00020938,0.00001448,-0.0000388
 7,0.00001516,-0.00011627,0.00033182,-0.00004515,-0.00043916,-0.0001360
 5,0.00004053,-0.00014751,-0.00028149,0.00026418,0.00188098,-0.00116108
 ,-0.00243062,0.00009413,0.00004862,-0.00005373,-0.00005093,-0.00008803
 ,-0.00006935,-0.00027847,-0.00062053,0.00047932,-0.00041077,0.00200042
 ,0.00006846,0.00191830,0.00122032,-0.00009331,0.00027496,-0.00006126,0
 .00016028,0.00016375,0.00004201,-0.00000056,-0.01370670,0.03284538,0.0
 0158035,-0.09535216,0.10044943,0.00582584,0.00833377,-0.02193960,-0.00
 131983,-0.00330732,-0.00034218,-0.00155255,-0.00020407,-0.00040440,-0.
 00030716,-0.00379383,-0.00356395,0.00275883,0.00038685,-0.00022646,-0.
 00015626,-0.00055996,-0.00123141,-0.00096633,-0.00002632,-0.00011459,0
 .00013698,-0.00000096,0.00001080,0.00001084,0.00000270,0.00000690,0.00
 000031,0.00002291,-0.00000276,-0.00000372,0.00000056,0.00000037,-0.000
 00296,0.00000190,0.00000212,-0.00000171,0.00000488,0.00000919,0.000011
 58,-0.00000379,0.00000072,-0.00000272,-0.00001828,0.00000016,-0.000000
 25,-0.00001063,-0.00004313,0.00003793,0.00000809,0.00003011,-0.0000396
 1,0.00003102,-0.00000660,0.00003261,0.00000019,-0.00002278,0.00000197,
 0.00030838,0.00013609,0.00000250,-0.00000090,0.00000232,-0.00000015,0.
 00000303,-0.00000440,0.00000083,0.00000057,-0.00000315,-0.00000039,-0.
 00000094,-0.00000493,0.00000353,0.00001845,0.00000731,-0.00000830,0.00
 003345,-0.00002842,-0.00002321,-0.00038663,-0.00015229,-0.00062489,-0.
 00001089,0.00000736,0.00011195,-0.00015497,0.00022369,0.00019826,0.000
 01868,-0.00000565,-0.00004048,-0.00003673,-0.00006516,-0.00001941,-0.0
 0003046,-0.00000194,-0.00003822,-0.00000232,0.00008458,-0.00007017,-0.
 00000692,-0.00001901,0.00002970,-0.00004221,-0.00009641,0.00012822,-0.
 00142173,0.00226578,0.00002060,0.10523582,-0.00058766,-0.00129986,-0.0
 0128132,0.00102591,0.00018416,-0.00013253,-0.00000350,0.00000389,-0.00
 000119,-0.00000621,0.00000325,-0.00001931,0.00000319,0.00000686,-0.000
 00709,0.00002514,-0.00000768,0.00002526,-0.00000244,-0.00002094,-0.000
 00159,-0.00000836,-0.00001796,-0.00000878,0.00018394,0.00003441,-0.000
 28798,0.00009702,-0.00003348,-0.00001310,0.00001701,-0.00002556,0.0000
 1215,-0.00025824,-0.00187672,-0.00096422,0.00008115,0.00122262,0.00030
 898,-0.00003332,-0.00002629,0.00003808,-0.00001301,0.00000045,0.000015
 85,-0.00000413,-0.00003760,0.00002478,0.00004151,-0.00002493,-0.000010
 21,0.00000041,0.00000693,-0.00001803,-0.00029140,0.00015021,0.00006211
 ,-0.00000160,0.00000718,0.00002331,-0.00001088,0.00043978,-0.00007925,
 0.00029349,-0.00015961,0.00058855,-0.00019151,-0.00069112,0.00010272,-
 0.00029599,0.00080075,-0.00021071,0.00005224,-0.00003183,0.00010563,-0
 .00002687,0.00003182,-0.00006135,-0.00007138,0.00001260,-0.00003088,-0
 .00028097,0.00012803,0.00023283,0.00017162,0.00161552,0.00018391,0.000
 36375,-0.00006698,0.00006811,0.00040441,0.00015668,0.00009712,-0.00016
 223,0.00293193,-0.00001148,0.10107711,-0.26442241,-0.00727420,0.008263
 19,-0.02110134,-0.00206372,-0.00339969,0.00172779,-0.00127288,-0.00026
 366,0.00011343,0.00020844,-0.00077592,0.00083795,0.00036649,-0.0003845
 9,0.00020684,0.00017192,-0.00188482,-0.00069822,0.00014923,0.00008182,
 0.00001778,0.00003763,0.00000869,-0.00000649,-0.00000548,-0.00000011,-
 0.00000170,0.00000143,-0.00000063,0.00000165,0.00000246,0.00000462,-0.
 00000137,0.00000702,-0.00000136,0.00000075,0.00000195,0.00000203,-0.00
 000562,-0.00000703,-0.00000037,0.00000083,-0.00000414,0.00000650,0.000
 00344,0.00000001,-0.00000179,0.00000531,-0.00000780,0.00000776,0.00000
 378,-0.00000822,0.00001393,-0.00002025,0.00001456,0.00001327,0.0000233
 4,-0.00001814,0.00032481,0.00018334,0.00001111,-0.00000417,0.00000288,
 -0.00000268,0.00000651,-0.00000812,-0.00000006,0.00000149,-0.00000429,
 0.00000134,-0.00000348,-0.00000710,0.00000608,0.00000549,0.00000907,-0
 .00002486,-0.00001245,-0.00010120,-0.00006384,0.00000270,0.00019941,-0
 .00043066,-0.00002672,0.00001462,0.00002379,0.00000327,-0.00000844,0.0
 0000056,-0.00000472,0.00000820,0.00001270,0.00003737,0.00001670,-0.000
 03939,-0.00002925,0.00004896,-0.00004141,-0.00006879,0.00011142,-0.000
 04599,-0.00007637,-0.00003132,-0.00001857,-0.00021579,-0.00011607,-0.0
 0006127,0.00412595,-0.00929044,-0.00036921,-0.10734291,0.28887037,-0.0
 0067238,0.00018422,0.00063169,-0.00103208,-0.00003999,-0.00004915,-0.0
 0001089,-0.00000239,0.00000088,-0.00000028,0.00000455,-0.00001644,0.00
 000644,0.00000407,-0.00001155,0.00000879,-0.00001247,0.00002596,-0.000
 07736,0.00008791,0.00004594,-0.00002848,-0.00002596,0.00006935,-0.0000
 1023,-0.00023317,-0.00009723,0.00005111,-0.00004945,-0.00002454,0.0002
 6792,-0.00022096,-0.00004586,-0.00021513,-0.00162293,-0.00067126,0.000
 72174,0.00014433,0.00078017,0.00000009,-0.00001212,0.00000751,0.000001
 50,0.00000015,-0.00000301,-0.00000325,-0.00000762,0.00000741,0.0000159
 1,-0.00000581,-0.00000359,-0.00001807,0.00000314,0.00000383,-0.0000864
 3,0.00008672,-0.00010104,0.00000746,0.00002299,0.00000921,0.00005238,0
 .00011033,-0.00014711,-0.00025613,-0.00017013,0.00029939,0.00017478,-0
 .00017548,0.00031298,-0.00083130,-0.00026568,0.00148993,0.00001777,-0.
 00004416,0.00008894,0.00001200,0.00005826,-0.00002263,0.00009572,0.000
 23159,-0.00019973,0.00036789,-0.00077533,0.00001824,0.00015394,0.00112
 426,-0.00024010,-0.00002767,0.00003274,0.00000337,-0.00020200,0.000252
 86,-0.00045154,0.00693035,-0.01480456,-0.00200007,0.00459200,-0.006299
 08,-0.04866659,0.00709944,-0.01951469,-0.00269487,-0.00288995,0.000195
 50,-0.00100238,-0.00019505,0.00031422,0.00016680,0.00184095,0.00119238
 ,-0.00069556,0.00006704,0.00006674,-0.00013371,-0.00034392,-0.00042857
 ,-0.00018164,0.00014498,0.00009791,-0.00009361,0.00000493,-0.00000746,
 -0.00000629,-0.00000143,-0.00000266,0.00000066,-0.00000833,0.00000123,
 0.00000201,0.00000131,-0.00000179,0.00000436,-0.00000146,0.00000041,0.
 00000160,-0.00000065,-0.00000551,-0.00000687,0.00000261,0.00000208,-0.
 00000486,0.00000688,0.00000143,-0.00000397,0.00000705,0.00001343,-0.00
 002134,-0.00002362,-0.00002756,0.00003753,-0.00001481,-0.00001255,-0.0
 0001077,0.00001200,0.00003731,0.00000325,0.00022494,0.00014561,0.00000
 709,-0.00000006,0.00000066,-0.00000079,0.00000235,-0.00000210,0.000000
 47,0.00000147,-0.00000206,0.00000005,-0.00000128,-0.00000132,0.0000009
 6,0.00001454,0.00000447,-0.00000417,0.00003181,-0.00003612,-0.00002213
 ,-0.00028853,0.00002930,-0.00038208,-0.00001886,0.00001674,-0.00000377
 ,0.00006859,-0.00007945,-0.00007946,-0.00000541,0.00001781,0.00002630,
 -0.00000740,0.00003704,0.00000184,-0.00005353,0.00001785,0.00006121,-0
 .00000751,0.00003393,0.00002945,0.00014418,-0.00002656,0.00023273,0.00
 037071,-0.00001848,0.00036463,-0.01311769,0.02836753,0.00249219,-0.003
 07239,0.01199245,0.05087177\\0.00000330,-0.00000064,0.00000127,-0.0000
 0234,-0.00000303,-0.00000365,-0.00000039,-0.00000082,-0.00000008,-0.00
 000075,0.00000098,-0.00000045,-0.00000050,0.00000332,-0.00000040,0.000
 00064,-0.00000276,-0.00000277,-0.00000039,0.00000531,0.00000448,-0.000
 00435,-0.00000981,0.00000333,-0.00000174,0.00000690,-0.00000160,0.0000
 0024,0.00000023,0.00000258,-0.00000033,0.00000055,0.00000101,-0.000001
 38,0.00000476,-0.00000170,0.00000242,-0.00000270,0.00000065,0.00000020
 ,0.00000284,-0.00000051,0.00000188,-0.00000221,-0.00000104,0.00000562,
 -0.00000103,-0.00000329,-0.00000389,0.00000405,0.00000021,0.00000901,0
 .00000055,-0.00000233,-0.00000202,0.00000053,0.00000180,-0.00000482,0.
 00000460,-0.00000341,-0.00000410,0.00000312,0.00000381,0.00000125,-0.0
 0000409,-0.00000096,0.00000626,0.00000541,-0.00000595,0.00000529,0.000
 00365,-0.00000072,0.00000723,0.00000499,0.00000017,-0.00000451,0.00000
 055,0.00000394,-0.00000043,0.00000206,0.00000139,0.00000071,-0.0000062
 0,0.00000005,-0.00000551,-0.00000751,-0.00000375,-0.00000016,0.0000000
 3,-0.00000168,-0.00000073,0.00000171,-0.00000006,0.00000160,0.00000184
 ,0.00000299,-0.00000382,0.00000548,0.00000608,-0.00000238,0.00000488,0
 .00000353,-0.00000022,-0.00000495,0.00000308,-0.00000141,-0.00000516,-
 0.00000716,0.00000591,-0.00000218,-0.00000029,-0.00000113,-0.00000204,
 -0.00000201,-0.00000085,0.,-0.00000048,-0.00000150,0.00000046,-0.00000
 164,-0.00000016,-0.00000141,0.00000197,-0.00000051,-0.00000192,0.00000
 082,-0.00000032,-0.00000220,0.00000202,-0.00000007,-0.00000123,0.00000
 243,-0.00000042,-0.00000166,0.00000105,0.00000063,-0.00000156,0.000001
 91,-0.00000044,-0.00000008,0.00000087,0.,-0.00000391,-0.00000071,0.000
 00076,-0.00000286,-0.00000068,0.00000124,-0.00000142,-0.00000211,0.000
 00038,-0.00000006,-0.00000171,0.00000266,0.00000113,0.00000087,-0.0000
 0116,-0.00000321,0.00000263,0.00000063,-0.00000064,-0.00000216,0.00000
 080,0.00000291,-0.00000206,-0.00000006,0.00000089,0.00000005,0.0000014
 8,0.00000023,-0.00000121,-0.00000297,-0.00000029,-0.00000122,0.0000015
 9,0.00000061,-0.00000051,-0.00000338,0.00000257,0.00000266,-0.00000219
 ,-0.00000229,-0.00000177,0.00000021,-0.00000234,-0.00000007,-0.0000011
 8,0.00000043,0.00000288,0.00000126,0.00000189,0.00000050,0.00000168,0.
 00000272,0.00000028,-0.00000191,0.00000263,0.00000228,-0.00000113,0.00
 000130,-0.00000140,-0.00000096,-0.00000056,0.00000088,0.00000060,-0.00
 000176,-0.00000051,0.00000102,-0.00000158,-0.00000241\\\@


 THE WORLD OF CHEMICAL REACTIONS IS LIKE A STAGE,
 ON WHICH SCENE AFTER SCENE IS CEASELESSLY PLAYED.
 THE ACTORS ON IT ARE THE ELEMENTS.
   -- CLEMENS WINKLER   BER. 30,13(1897)
 (DISCOVERER OF GERMANIUM, FEB 6, 1886)
 Job cpu time:       1 days  0 hours 12 minutes 38.8 seconds.
 Elapsed time:       0 days  1 hours 12 minutes 52.8 seconds.
 File lengths (MBytes):  RWF=   2657 Int=      0 D2E=      0 Chk=     44 Scr=      1
 Normal termination of Gaussian 16 at Sat Jun 19 16:47:33 2021.
