 Entering Gaussian System, Link 0=g16
 Input=Revised-SAH-42C-3-energy-conf-6.com
 Output=Revised-SAH-42C-3-energy-conf-6.log
 Initial command:
 /home/admin/g16/l1.exe "/home/admin/tmp/Gau-329812.inp" -scrdir="/home/admin/tmp/"
 Entering Link 1 = /home/admin/g16/l1.exe PID=    329822.
  
 Copyright (c) 1988,1990,1992,1993,1995,1998,2003,2009,2016,
            Gaussian, Inc.  All Rights Reserved.
  
 This is part of the Gaussian(R) 16 program.  It is based on
 the Gaussian(R) 09 system (copyright 2009, Gaussian, Inc.),
 the Gaussian(R) 03 system (copyright 2003, Gaussian, Inc.),
 the Gaussian(R) 98 system (copyright 1998, Gaussian, Inc.),
 the Gaussian(R) 94 system (copyright 1995, Gaussian, Inc.),
 the Gaussian 92(TM) system (copyright 1992, Gaussian, Inc.),
 the Gaussian 90(TM) system (copyright 1990, Gaussian, Inc.),
 the Gaussian 88(TM) system (copyright 1988, Gaussian, Inc.),
 the Gaussian 86(TM) system (copyright 1986, Carnegie Mellon
 University), and the Gaussian 82(TM) system (copyright 1983,
 Carnegie Mellon University). Gaussian is a federally registered
 trademark of Gaussian, Inc.
  
 This software contains proprietary and confidential information,
 including trade secrets, belonging to Gaussian, Inc.
  
 This software is provided under written license and may be
 used, copied, transmitted, or stored only in accord with that
 written license.
  
 The following legend is applicable only to US Government
 contracts under FAR:
  
                    RESTRICTED RIGHTS LEGEND
  
 Use, reproduction and disclosure by the US Government is
 subject to restrictions as set forth in subparagraphs (a)
 and (c) of the Commercial Computer Software - Restricted
 Rights clause in FAR 52.227-19.
  
 Gaussian, Inc.
 340 Quinnipiac St., Bldg. 40, Wallingford CT 06492
  
  
 ---------------------------------------------------------------
 Warning -- This program may not be used in any manner that
 competes with the business of Gaussian, Inc. or will provide
 assistance to any competitor of Gaussian, Inc.  The licensee
 of this program is prohibited from giving any competitor of
 Gaussian, Inc. access to this program.  By using this program,
 the user acknowledges that Gaussian, Inc. is engaged in the
 business of creating and licensing software in the field of
 computational chemistry and represents and warrants to the
 licensee that it is not a competitor of Gaussian, Inc. and that
 it will not use this program in any manner prohibited above.
 ---------------------------------------------------------------
  

 Cite this work as:
 Gaussian 16, Revision A.03,
 M. J. Frisch, G. W. Trucks, H. B. Schlegel, G. E. Scuseria, 
 M. A. Robb, J. R. Cheeseman, G. Scalmani, V. Barone, 
 G. A. Petersson, H. Nakatsuji, X. Li, M. Caricato, A. V. Marenich, 
 J. Bloino, B. G. Janesko, R. Gomperts, B. Mennucci, H. P. Hratchian, 
 J. V. Ortiz, A. F. Izmaylov, J. L. Sonnenberg, D. Williams-Young, 
 F. Ding, F. Lipparini, F. Egidi, J. Goings, B. Peng, A. Petrone, 
 T. Henderson, D. Ranasinghe, V. G. Zakrzewski, J. Gao, N. Rega, 
 G. Zheng, W. Liang, M. Hada, M. Ehara, K. Toyota, R. Fukuda, 
 J. Hasegawa, M. Ishida, T. Nakajima, Y. Honda, O. Kitao, H. Nakai, 
 T. Vreven, K. Throssell, J. A. Montgomery, Jr., J. E. Peralta, 
 F. Ogliaro, M. J. Bearpark, J. J. Heyd, E. N. Brothers, K. N. Kudin, 
 V. N. Staroverov, T. A. Keith, R. Kobayashi, J. Normand, 
 K. Raghavachari, A. P. Rendell, J. C. Burant, S. S. Iyengar, 
 J. Tomasi, M. Cossi, J. M. Millam, M. Klene, C. Adamo, R. Cammi, 
 J. W. Ochterski, R. L. Martin, K. Morokuma, O. Farkas, 
 J. B. Foresman, and D. J. Fox, Gaussian, Inc., Wallingford CT, 2016.
 
 ******************************************
 Gaussian 16:  ES64L-G16RevA.03 25-Dec-2016
                23-Jun-2021 
 ******************************************
 %mem=20gb
 %nproc=10
 Will use up to   10 processors via shared memory.
 %chk=Revised-SAH-42C-3-conf-6.chk
 ----------------------------------------------------------------------
 # td=(nstates=10,root=1) b3lyp/6-311g(d,p) guess=read geom=check integ
 ral(ultrafinegrid) scrf=(iefpcm,read,solvent=methanol)
 ----------------------------------------------------------------------
 1/29=2,38=1,40=2,172=1/1;
 2/12=2,40=1/2;
 3/5=4,6=6,7=101,11=9,14=-4,25=1,30=1,70=2203,72=3,74=-5,75=-5,116=-2/1,2,3,8;
 4/5=1/1;
 5/5=2,38=6,53=3/2;
 8/6=1,10=2,107=1,108=10/1;
 9/8=1,41=10,42=1,70=2/14;
 6/7=2,8=2,9=2,10=2/1;
 99/5=1,9=1/99;
 ----------------------------------------------------------------------
 Candidate Structure: Revised-SAH-42C-3, Conformer: 6, energy calculati
 on with methanol solvation
 ----------------------------------------------------------------------
 Structure from the checkpoint file:  "Revised-SAH-42C-3-conf-6.chk"
 Charge =  0 Multiplicity = 1
 Redundant internal coordinates found in file.  (old form).
 C,0,2.467321837,5.4981968818,-4.6590591466
 O,0,2.1701956838,6.8817474119,-4.525729557
 H,0,1.6173954736,11.6115832901,-1.5700427663
 C,0,0.0684576147,11.7121591099,0.5899363821
 C,0,2.5238493372,11.8440244553,1.1055410193
 C,0,1.4206631868,10.9947603528,0.4616823913
 C,0,1.7306165216,6.656286158,-0.5799608598
 C,0,3.2548071834,8.7133575841,-0.6887282681
 C,0,2.3659497674,7.7124790397,-1.4650595158
 H,0,2.8876899647,11.0368136702,-3.2115331063
 H,0,1.8657570015,9.3041330761,-4.356372961
 O,0,5.6436160108,10.6750955262,-2.4130118718
 H,0,5.6951713483,8.2333941862,-2.6580068478
 C,0,8.2164971705,4.2928873347,-2.5427323031
 C,0,8.5159973085,3.0610173617,-1.9708519689
 C,0,9.718260622,2.4132241138,-2.2765068328
 C,0,10.6188956862,3.0086178893,-3.1610051745
 C,0,10.3184836034,4.2429143486,-3.7345119682
 O,0,8.578162943,8.6895331034,-5.3776282442
 C,0,9.115402455,4.9074528748,-3.4362085425
 C,0,8.8558422811,6.201005722,-4.0669285593
 C,0,7.7820769024,6.9915510664,-3.8925437118
 C,0,7.6783074597,8.2795523755,-4.6247156555
 O,0,3.2230640589,7.0322387875,-2.4315931292
 C,0,3.1222041393,10.1110184629,-1.3116377589
 C,0,1.7075979189,10.6632257361,-1.0201595569
 C,0,0.6809682225,9.6469061877,-1.5970366436
 C,0,1.3816047926,8.5121384922,-2.3451272911
 N,0,6.5435345451,9.0033315971,-4.444003796
 C,0,6.3614404887,10.2825110397,-5.144414621
 C,0,4.9551579303,10.7301433072,-4.7239685709
 C,0,3.0724032843,7.6288752823,-3.7104524886
 C,0,4.4410703439,7.7244570712,-4.3596531067
 C,0,5.3806905287,8.6695834628,-3.6072475428
 C,0,4.757884868,10.0526459061,-3.3538106286
 C,0,3.2887854126,10.0778600928,-2.856662331
 C,0,2.3655819828,8.9656951495,-3.4454652533
 H,0,1.593003422,5.0403847341,-5.12826816
 H,0,3.3419495844,5.3219093701,-5.3000781574
 H,0,2.6394724104,5.0364053621,-3.6811253942
 H,0,-0.1750859281,11.9037638426,1.6411853975
 H,0,0.0961987145,12.6794311516,0.0714547017
 H,0,-0.7503652388,11.1266879377,0.1589144049
 H,0,3.4731591454,11.3042713659,1.1782952479
 H,0,2.7012185024,12.758622784,0.5245587225
 H,0,2.2363318071,12.1456288264,2.1193158987
 H,0,1.3489422113,10.0495677422,1.0201745541
 H,0,1.1647825768,5.9401771433,-1.184549582
 H,0,2.4983896018,6.1100782945,-0.0206995951
 H,0,1.0508007824,7.1199581093,0.1430168342
 H,0,4.2872857933,8.3524014254,-0.7190257021
 H,0,2.9627280947,8.7514703419,0.3664973079
 H,0,5.3805641542,11.6126889507,-2.3338673518
 H,0,7.2775991868,4.7811617596,-2.2963647492
 H,0,7.810446382,2.6010041515,-1.2836440902
 H,0,9.9482594779,1.450557282,-1.8272958166
 H,0,11.5547921249,2.5124737324,-3.4047309801
 H,0,11.0203950307,4.7067815678,-4.424029251
 H,0,9.62134533,6.559644354,-4.7536727527
 H,0,6.9792078393,6.7013514349,-3.2236787495
 H,0,3.8766978043,10.7768868119,-0.8945239024
 H,0,0.0811432088,9.21073352,-0.7879433037
 H,0,-0.0304088621,10.1394385302,-2.2686360707
 H,0,0.6466757792,7.8291154567,-2.7797573951
 H,0,6.4715100216,10.1482679565,-6.2244253594
 H,0,7.1295400802,10.9897203555,-4.8157154921
 H,0,4.8650462448,11.8181223629,-4.6456868408
 H,0,4.1963993076,10.3856268795,-5.4350559343
 H,0,4.3115506081,8.0730742486,-5.3894375258
 H,0,4.902206923,6.7332477069,-4.4129541264
 Recover connectivity data from disk.
                           ----------------------------
                           !    Current Parameters    !
                           ! (Angstroms and Degrees)  !
 --------------------------                            --------------------------
 ! Name  Definition              Value                                          !
 --------------------------------------------------------------------------------
 ! R1    R(1,2)                  1.4214                                         !
 ! R2    R(1,38)                 1.0928                                         !
 ! R3    R(1,39)                 1.0986                                         !
 ! R4    R(1,40)                 1.0951                                         !
 ! R5    R(2,32)                 1.4272                                         !
 ! R6    R(3,26)                 1.1                                            !
 ! R7    R(4,6)                  1.5361                                         !
 ! R8    R(4,41)                 1.096                                          !
 ! R9    R(4,42)                 1.0978                                         !
 ! R10   R(4,43)                 1.095                                          !
 ! R11   R(5,6)                  1.5339                                         !
 ! R12   R(5,44)                 1.0944                                         !
 ! R13   R(5,45)                 1.0979                                         !
 ! R14   R(5,46)                 1.0961                                         !
 ! R15   R(6,26)                 1.5453                                         !
 ! R16   R(6,47)                 1.1002                                         !
 ! R17   R(7,9)                  1.5174                                         !
 ! R18   R(7,48)                 1.0948                                         !
 ! R19   R(7,49)                 1.0957                                         !
 ! R20   R(7,50)                 1.0954                                         !
 ! R21   R(8,9)                  1.5474                                         !
 ! R22   R(8,25)                 1.5359                                         !
 ! R23   R(8,51)                 1.0942                                         !
 ! R24   R(8,52)                 1.0956                                         !
 ! R25   R(9,24)                 1.46                                           !
 ! R26   R(9,28)                 1.5437                                         !
 ! R27   R(10,36)                1.0984                                         !
 ! R28   R(11,37)                1.0928                                         !
 ! R29   R(12,35)                1.4342                                         !
 ! R30   R(12,53)                0.977                                          !
 ! R31   R(13,34)                1.091                                          !
 ! R32   R(14,15)                1.3908                                         !
 ! R33   R(14,20)                1.4086                                         !
 ! R34   R(14,54)                1.0866                                         !
 ! R35   R(15,16)                1.3995                                         !
 ! R36   R(15,55)                1.087                                          !
 ! R37   R(16,17)                1.3957                                         !
 ! R38   R(16,56)                1.0869                                         !
 ! R39   R(17,18)                1.3938                                         !
 ! R40   R(17,57)                1.087                                          !
 ! R41   R(18,20)                1.4064                                         !
 ! R42   R(18,58)                1.0878                                         !
 ! R43   R(19,23)                1.2429                                         !
 ! R44   R(20,21)                1.4623                                         !
 ! R45   R(21,22)                1.3447                                         !
 ! R46   R(21,59)                1.0891                                         !
 ! R47   R(22,23)                1.4852                                         !
 ! R48   R(22,60)                1.0845                                         !
 ! R49   R(23,29)                1.358                                          !
 ! R50   R(24,32)                1.4192                                         !
 ! R51   R(25,26)                1.5463                                         !
 ! R52   R(25,36)                1.5543                                         !
 ! R53   R(25,61)                1.0893                                         !
 ! R54   R(26,27)                1.5555                                         !
 ! R55   R(27,28)                1.5291                                         !
 ! R56   R(27,62)                1.0976                                         !
 ! R57   R(27,63)                1.0953                                         !
 ! R58   R(28,37)                1.5442                                         !
 ! R59   R(28,64)                1.0934                                         !
 ! R60   R(29,30)                1.4697                                         !
 ! R61   R(29,34)                1.471                                          !
 ! R62   R(30,31)                1.5345                                         !
 ! R63   R(30,65)                1.0939                                         !
 ! R64   R(30,66)                1.0946                                         !
 ! R65   R(31,35)                1.5412                                         !
 ! R66   R(31,67)                1.0945                                         !
 ! R67   R(31,68)                1.0955                                         !
 ! R68   R(32,33)                1.5178                                         !
 ! R69   R(32,37)                1.5352                                         !
 ! R70   R(33,34)                1.5304                                         !
 ! R71   R(33,69)                1.0949                                         !
 ! R72   R(33,70)                1.0945                                         !
 ! R73   R(34,35)                1.5378                                         !
 ! R74   R(35,36)                1.5511                                         !
 ! R75   R(36,37)                1.5607                                         !
 ! A1    A(2,1,38)             106.3092                                         !
 ! A2    A(2,1,39)             112.1696                                         !
 ! A3    A(2,1,40)             111.0735                                         !
 ! A4    A(38,1,39)            108.615                                          !
 ! A5    A(38,1,40)            109.4231                                         !
 ! A6    A(39,1,40)            109.1617                                         !
 ! A7    A(1,2,32)             115.5316                                         !
 ! A8    A(6,4,41)             110.9377                                         !
 ! A9    A(6,4,42)             110.476                                          !
 ! A10   A(6,4,43)             112.0671                                         !
 ! A11   A(41,4,42)            107.7335                                         !
 ! A12   A(41,4,43)            107.7504                                         !
 ! A13   A(42,4,43)            107.7033                                         !
 ! A14   A(6,5,44)             112.252                                          !
 ! A15   A(6,5,45)             110.8105                                         !
 ! A16   A(6,5,46)             110.6054                                         !
 ! A17   A(44,5,45)            107.8105                                         !
 ! A18   A(44,5,46)            107.5628                                         !
 ! A19   A(45,5,46)            107.6127                                         !
 ! A20   A(4,6,5)              109.8456                                         !
 ! A21   A(4,6,26)             110.1029                                         !
 ! A22   A(4,6,47)             107.5453                                         !
 ! A23   A(5,6,26)             112.8144                                         !
 ! A24   A(5,6,47)             108.027                                          !
 ! A25   A(26,6,47)            108.3342                                         !
 ! A26   A(9,7,48)             110.4613                                         !
 ! A27   A(9,7,49)             110.5674                                         !
 ! A28   A(9,7,50)             110.4997                                         !
 ! A29   A(48,7,49)            108.5397                                         !
 ! A30   A(48,7,50)            108.7005                                         !
 ! A31   A(49,7,50)            107.9993                                         !
 ! A32   A(9,8,25)             109.6042                                         !
 ! A33   A(9,8,51)             108.3462                                         !
 ! A34   A(9,8,52)             110.6454                                         !
 ! A35   A(25,8,51)            111.7421                                         !
 ! A36   A(25,8,52)            109.6306                                         !
 ! A37   A(51,8,52)            106.8409                                         !
 ! A38   A(7,9,8)              113.4576                                         !
 ! A39   A(7,9,24)             107.9174                                         !
 ! A40   A(7,9,28)             115.2218                                         !
 ! A41   A(8,9,24)             107.2337                                         !
 ! A42   A(8,9,28)             108.4964                                         !
 ! A43   A(24,9,28)            103.7856                                         !
 ! A44   A(35,12,53)           107.6587                                         !
 ! A45   A(15,14,20)           120.6545                                         !
 ! A46   A(15,14,54)           119.3981                                         !
 ! A47   A(20,14,54)           119.9473                                         !
 ! A48   A(14,15,16)           120.3442                                         !
 ! A49   A(14,15,55)           119.67                                           !
 ! A50   A(16,15,55)           119.9858                                         !
 ! A51   A(15,16,17)           119.6904                                         !
 ! A52   A(15,16,56)           120.0986                                         !
 ! A53   A(17,16,56)           120.211                                          !
 ! A54   A(16,17,18)           119.964                                          !
 ! A55   A(16,17,57)           120.1985                                         !
 ! A56   A(18,17,57)           119.8375                                         !
 ! A57   A(17,18,20)           121.0334                                         !
 ! A58   A(17,18,58)           119.9588                                         !
 ! A59   A(20,18,58)           119.0078                                         !
 ! A60   A(14,20,18)           118.3134                                         !
 ! A61   A(14,20,21)           123.1109                                         !
 ! A62   A(18,20,21)           118.5757                                         !
 ! A63   A(20,21,22)           127.2877                                         !
 ! A64   A(20,21,59)           116.0068                                         !
 ! A65   A(22,21,59)           116.7055                                         !
 ! A66   A(21,22,23)           120.1115                                         !
 ! A67   A(21,22,60)           120.9166                                         !
 ! A68   A(23,22,60)           118.9712                                         !
 ! A69   A(19,23,22)           122.2848                                         !
 ! A70   A(19,23,29)           120.6505                                         !
 ! A71   A(22,23,29)           117.064                                          !
 ! A72   A(9,24,32)            109.7764                                         !
 ! A73   A(8,25,26)            109.1174                                         !
 ! A74   A(8,25,36)            111.9914                                         !
 ! A75   A(8,25,61)            109.947                                          !
 ! A76   A(26,25,36)           107.0399                                         !
 ! A77   A(26,25,61)           110.07                                           !
 ! A78   A(36,25,61)           108.6283                                         !
 ! A79   A(3,26,6)             106.211                                          !
 ! A80   A(3,26,25)            106.7794                                         !
 ! A81   A(3,26,27)            108.8926                                         !
 ! A82   A(6,26,25)            115.2922                                         !
 ! A83   A(6,26,27)            111.9157                                         !
 ! A84   A(25,26,27)           107.4907                                         !
 ! A85   A(26,27,28)           111.3393                                         !
 ! A86   A(26,27,62)           110.3006                                         !
 ! A87   A(26,27,63)           111.238                                          !
 ! A88   A(28,27,62)           108.4294                                         !
 ! A89   A(28,27,63)           109.3487                                         !
 ! A90   A(62,27,63)           106.0074                                         !
 ! A91   A(9,28,27)            113.4337                                         !
 ! A92   A(9,28,37)             98.7466                                         !
 ! A93   A(9,28,64)            109.3676                                         !
 ! A94   A(27,28,37)           114.9984                                         !
 ! A95   A(27,28,64)           110.4914                                         !
 ! A96   A(37,28,64)           109.1791                                         !
 ! A97   A(23,29,30)           120.2642                                         !
 ! A98   A(23,29,34)           127.9769                                         !
 ! A99   A(30,29,34)           111.7541                                         !
 ! A100  A(29,30,31)           103.7013                                         !
 ! A101  A(29,30,65)           110.5635                                         !
 ! A102  A(29,30,66)           109.4073                                         !
 ! A103  A(31,30,65)           113.4864                                         !
 ! A104  A(31,30,66)           111.859                                          !
 ! A105  A(65,30,66)           107.768                                          !
 ! A106  A(30,31,35)           103.4535                                         !
 ! A107  A(30,31,67)           112.6446                                         !
 ! A108  A(30,31,68)           111.4172                                         !
 ! A109  A(35,31,67)           111.2753                                         !
 ! A110  A(35,31,68)           110.4981                                         !
 ! A111  A(67,31,68)           107.5788                                         !
 ! A112  A(2,32,24)            111.2099                                         !
 ! A113  A(2,32,33)            111.0182                                         !
 ! A114  A(2,32,37)            105.2717                                         !
 ! A115  A(24,32,33)           108.4311                                         !
 ! A116  A(24,32,37)           105.0351                                         !
 ! A117  A(33,32,37)           115.731                                          !
 ! A118  A(32,33,34)           112.4716                                         !
 ! A119  A(32,33,69)           108.4009                                         !
 ! A120  A(32,33,70)           110.1028                                         !
 ! A121  A(34,33,69)           109.7789                                         !
 ! A122  A(34,33,70)           108.9373                                         !
 ! A123  A(69,33,70)           107.001                                          !
 ! A124  A(13,34,29)           110.9642                                         !
 ! A125  A(13,34,33)           110.9668                                         !
 ! A126  A(13,34,35)           109.4464                                         !
 ! A127  A(29,34,33)           110.2308                                         !
 ! A128  A(29,34,35)           102.1133                                         !
 ! A129  A(33,34,35)           112.8159                                         !
 ! A130  A(12,35,31)           108.2602                                         !
 ! A131  A(12,35,34)           104.3774                                         !
 ! A132  A(12,35,36)           111.5679                                         !
 ! A133  A(31,35,34)           101.3615                                         !
 ! A134  A(31,35,36)           113.5171                                         !
 ! A135  A(34,35,36)           116.808                                          !
 ! A136  A(10,36,25)           105.2715                                         !
 ! A137  A(10,36,35)           104.8625                                         !
 ! A138  A(10,36,37)           106.5138                                         !
 ! A139  A(25,36,35)           114.8621                                         !
 ! A140  A(25,36,37)           109.0751                                         !
 ! A141  A(35,36,37)           115.3238                                         !
 ! A142  A(11,37,28)           113.1713                                         !
 ! A143  A(11,37,32)           109.6572                                         !
 ! A144  A(11,37,36)           111.367                                          !
 ! A145  A(28,37,32)            99.2419                                         !
 ! A146  A(28,37,36)           108.5052                                         !
 ! A147  A(32,37,36)           114.411                                          !
 ! D1    D(38,1,2,32)          168.7286                                         !
 ! D2    D(39,1,2,32)          -72.6926                                         !
 ! D3    D(40,1,2,32)           49.7774                                         !
 ! D4    D(1,2,32,24)          -53.2935                                         !
 ! D5    D(1,2,32,33)           67.5316                                         !
 ! D6    D(1,2,32,37)         -166.5223                                         !
 ! D7    D(41,4,6,5)           -58.3544                                         !
 ! D8    D(41,4,6,26)          176.8206                                         !
 ! D9    D(41,4,6,47)           58.979                                          !
 ! D10   D(42,4,6,5)            61.0513                                         !
 ! D11   D(42,4,6,26)          -63.7737                                         !
 ! D12   D(42,4,6,47)          178.3847                                         !
 ! D13   D(43,4,6,5)          -178.8409                                         !
 ! D14   D(43,4,6,26)           56.3342                                         !
 ! D15   D(43,4,6,47)          -61.5074                                         !
 ! D16   D(44,5,6,4)           170.9704                                         !
 ! D17   D(44,5,6,26)          -65.7829                                         !
 ! D18   D(44,5,6,47)           53.9378                                         !
 ! D19   D(45,5,6,4)           -68.4287                                         !
 ! D20   D(45,5,6,26)           54.8181                                         !
 ! D21   D(45,5,6,47)          174.5387                                         !
 ! D22   D(46,5,6,4)            50.8281                                         !
 ! D23   D(46,5,6,26)          174.0748                                         !
 ! D24   D(46,5,6,47)          -66.2045                                         !
 ! D25   D(4,6,26,3)            54.0754                                         !
 ! D26   D(4,6,26,25)          172.1031                                         !
 ! D27   D(4,6,26,27)          -64.6385                                         !
 ! D28   D(5,6,26,3)           -69.0283                                         !
 ! D29   D(5,6,26,25)           48.9994                                         !
 ! D30   D(5,6,26,27)          172.2578                                         !
 ! D31   D(47,6,26,3)          171.4284                                         !
 ! D32   D(47,6,26,25)         -70.5439                                         !
 ! D33   D(47,6,26,27)          52.7145                                         !
 ! D34   D(48,7,9,8)          -176.5097                                         !
 ! D35   D(48,7,9,24)          -57.8423                                         !
 ! D36   D(48,7,9,28)           57.5697                                         !
 ! D37   D(49,7,9,8)           -56.3455                                         !
 ! D38   D(49,7,9,24)           62.3219                                         !
 ! D39   D(49,7,9,28)          177.7339                                         !
 ! D40   D(50,7,9,8)            63.1691                                         !
 ! D41   D(50,7,9,24)         -178.1636                                         !
 ! D42   D(50,7,9,28)          -62.7516                                         !
 ! D43   D(25,8,9,7)          -144.1243                                         !
 ! D44   D(25,8,9,24)           96.8154                                         !
 ! D45   D(25,8,9,28)          -14.706                                          !
 ! D46   D(51,8,9,7)            93.7086                                         !
 ! D47   D(51,8,9,24)          -25.3517                                         !
 ! D48   D(51,8,9,28)         -136.8731                                         !
 ! D49   D(52,8,9,7)           -23.107                                          !
 ! D50   D(52,8,9,24)         -142.1673                                         !
 ! D51   D(52,8,9,28)          106.3113                                         !
 ! D52   D(9,8,25,26)           69.6297                                         !
 ! D53   D(9,8,25,36)          -48.6946                                         !
 ! D54   D(9,8,25,61)         -169.5615                                         !
 ! D55   D(51,8,25,26)        -170.2541                                         !
 ! D56   D(51,8,25,36)          71.4216                                         !
 ! D57   D(51,8,25,61)         -49.4453                                         !
 ! D58   D(52,8,25,26)         -51.9991                                         !
 ! D59   D(52,8,25,36)        -170.3234                                         !
 ! D60   D(52,8,25,61)          68.8097                                         !
 ! D61   D(7,9,24,32)          138.4113                                         !
 ! D62   D(8,9,24,32)          -99.0193                                         !
 ! D63   D(28,9,24,32)          15.6965                                         !
 ! D64   D(7,9,28,27)           80.9801                                         !
 ! D65   D(7,9,28,37)         -156.8328                                         !
 ! D66   D(7,9,28,64)          -42.8534                                         !
 ! D67   D(8,9,28,27)          -47.4499                                         !
 ! D68   D(8,9,28,37)           74.7371                                         !
 ! D69   D(8,9,28,64)         -171.2835                                         !
 ! D70   D(24,9,28,27)        -161.2629                                         !
 ! D71   D(24,9,28,37)         -39.0758                                         !
 ! D72   D(24,9,28,64)          74.9036                                         !
 ! D73   D(53,12,35,31)         63.0274                                         !
 ! D74   D(53,12,35,34)        170.4087                                         !
 ! D75   D(53,12,35,36)        -62.5808                                         !
 ! D76   D(20,14,15,16)         -0.01                                           !
 ! D77   D(20,14,15,55)       -179.9745                                         !
 ! D78   D(54,14,15,16)        179.8611                                         !
 ! D79   D(54,14,15,55)         -0.1034                                         !
 ! D80   D(15,14,20,18)          0.0917                                         !
 ! D81   D(15,14,20,21)       -179.9403                                         !
 ! D82   D(54,14,20,18)       -179.7788                                         !
 ! D83   D(54,14,20,21)          0.1893                                         !
 ! D84   D(14,15,16,17)         -0.0488                                         !
 ! D85   D(14,15,16,56)       -179.9978                                         !
 ! D86   D(55,15,16,17)        179.9156                                         !
 ! D87   D(55,15,16,56)         -0.0334                                         !
 ! D88   D(15,16,17,18)          0.0236                                         !
 ! D89   D(15,16,17,57)       -179.9598                                         !
 ! D90   D(56,16,17,18)        179.9726                                         !
 ! D91   D(56,16,17,57)         -0.0108                                         !
 ! D92   D(16,17,18,20)          0.0607                                         !
 ! D93   D(16,17,18,58)       -179.9872                                         !
 ! D94   D(57,17,18,20)       -179.9557                                         !
 ! D95   D(57,17,18,58)         -0.0037                                         !
 ! D96   D(17,18,20,14)         -0.1173                                         !
 ! D97   D(17,18,20,21)        179.9132                                         !
 ! D98   D(58,18,20,14)        179.9302                                         !
 ! D99   D(58,18,20,21)         -0.0394                                         !
 ! D100  D(14,20,21,22)          1.1587                                         !
 ! D101  D(14,20,21,59)       -178.8613                                         !
 ! D102  D(18,20,21,22)       -178.8733                                         !
 ! D103  D(18,20,21,59)          1.1067                                         !
 ! D104  D(20,21,22,23)       -179.6783                                         !
 ! D105  D(20,21,22,60)          0.027                                          !
 ! D106  D(59,21,22,23)          0.3418                                         !
 ! D107  D(59,21,22,60)       -179.9528                                         !
 ! D108  D(21,22,23,19)         -2.3104                                         !
 ! D109  D(21,22,23,29)        177.4081                                         !
 ! D110  D(60,22,23,19)        177.9785                                         !
 ! D111  D(60,22,23,29)         -2.3029                                         !
 ! D112  D(19,23,29,30)          0.3063                                         !
 ! D113  D(19,23,29,34)        179.4402                                         !
 ! D114  D(22,23,29,30)       -179.4171                                         !
 ! D115  D(22,23,29,34)         -0.2832                                         !
 ! D116  D(9,24,32,2)          -98.4262                                         !
 ! D117  D(9,24,32,33)         139.2396                                         !
 ! D118  D(9,24,32,37)          14.9514                                         !
 ! D119  D(8,25,26,3)         -174.113                                          !
 ! D120  D(8,25,26,6)           68.1777                                         !
 ! D121  D(8,25,26,27)         -57.3946                                         !
 ! D122  D(36,25,26,3)         -52.7299                                         !
 ! D123  D(36,25,26,6)        -170.4392                                         !
 ! D124  D(36,25,26,27)         63.9885                                         !
 ! D125  D(61,25,26,3)          65.1534                                         !
 ! D126  D(61,25,26,6)         -52.556                                          !
 ! D127  D(61,25,26,27)       -178.1282                                         !
 ! D128  D(8,25,36,10)         163.6694                                         !
 ! D129  D(8,25,36,35)         -81.5233                                         !
 ! D130  D(8,25,36,37)          49.7041                                         !
 ! D131  D(26,25,36,10)         44.1185                                         !
 ! D132  D(26,25,36,35)        158.9258                                         !
 ! D133  D(26,25,36,37)        -69.8469                                         !
 ! D134  D(61,25,36,10)        -74.703                                          !
 ! D135  D(61,25,36,35)         40.1043                                         !
 ! D136  D(61,25,36,37)        171.3316                                         !
 ! D137  D(3,26,27,28)         110.9434                                         !
 ! D138  D(3,26,27,62)        -128.6322                                         !
 ! D139  D(3,26,27,63)         -11.2957                                         !
 ! D140  D(6,26,27,28)        -131.9439                                         !
 ! D141  D(6,26,27,62)         -11.5194                                         !
 ! D142  D(6,26,27,63)         105.817                                          !
 ! D143  D(25,26,27,28)         -4.3822                                         !
 ! D144  D(25,26,27,62)        116.0423                                         !
 ! D145  D(25,26,27,63)       -126.6213                                         !
 ! D146  D(26,27,28,9)          59.1266                                         !
 ! D147  D(26,27,28,37)        -53.5149                                         !
 ! D148  D(26,27,28,64)       -177.6548                                         !
 ! D149  D(62,27,28,9)         -62.3937                                         !
 ! D150  D(62,27,28,37)       -175.0352                                         !
 ! D151  D(62,27,28,64)         60.8249                                         !
 ! D152  D(63,27,28,9)        -177.5494                                         !
 ! D153  D(63,27,28,37)         69.8091                                         !
 ! D154  D(63,27,28,64)        -54.3308                                         !
 ! D155  D(9,28,37,11)         162.6948                                         !
 ! D156  D(9,28,37,32)          46.5677                                         !
 ! D157  D(9,28,37,36)         -73.1683                                         !
 ! D158  D(27,28,37,11)        -76.2613                                         !
 ! D159  D(27,28,37,32)        167.6116                                         !
 ! D160  D(27,28,37,36)         47.8755                                         !
 ! D161  D(64,28,37,11)         48.5678                                         !
 ! D162  D(64,28,37,32)        -67.5594                                         !
 ! D163  D(64,28,37,36)        172.7046                                         !
 ! D164  D(23,29,30,31)        177.4895                                         !
 ! D165  D(23,29,30,65)         55.5124                                         !
 ! D166  D(23,29,30,66)        -63.0249                                         !
 ! D167  D(34,29,30,31)         -1.7755                                         !
 ! D168  D(34,29,30,65)       -123.7526                                         !
 ! D169  D(34,29,30,66)        117.7102                                         !
 ! D170  D(23,29,34,13)         40.6654                                         !
 ! D171  D(23,29,34,33)        -82.6736                                         !
 ! D172  D(23,29,34,35)        157.2089                                         !
 ! D173  D(30,29,34,13)       -140.14                                           !
 ! D174  D(30,29,34,33)         96.5209                                         !
 ! D175  D(30,29,34,35)        -23.5965                                         !
 ! D176  D(29,30,31,35)         26.5099                                         !
 ! D177  D(29,30,31,67)        146.7779                                         !
 ! D178  D(29,30,31,68)        -92.2145                                         !
 ! D179  D(65,30,31,35)        146.5183                                         !
 ! D180  D(65,30,31,67)        -93.2136                                         !
 ! D181  D(65,30,31,68)         27.7939                                         !
 ! D182  D(66,30,31,35)        -91.2853                                         !
 ! D183  D(66,30,31,67)         28.9828                                         !
 ! D184  D(66,30,31,68)        149.9904                                         !
 ! D185  D(30,31,35,12)         68.8977                                         !
 ! D186  D(30,31,35,34)        -40.5533                                         !
 ! D187  D(30,31,35,36)       -166.6484                                         !
 ! D188  D(67,31,35,12)        -52.2991                                         !
 ! D189  D(67,31,35,34)       -161.75                                           !
 ! D190  D(67,31,35,36)         72.1548                                         !
 ! D191  D(68,31,35,12)       -171.7439                                         !
 ! D192  D(68,31,35,34)         78.8051                                         !
 ! D193  D(68,31,35,36)        -47.29                                           !
 ! D194  D(2,32,33,34)         172.4709                                         !
 ! D195  D(2,32,33,69)          50.9013                                         !
 ! D196  D(2,32,33,70)         -65.8356                                         !
 ! D197  D(24,32,33,34)        -65.0783                                         !
 ! D198  D(24,32,33,69)        173.3521                                         !
 ! D199  D(24,32,33,70)         56.6153                                         !
 ! D200  D(37,32,33,34)         52.5765                                         !
 ! D201  D(37,32,33,69)        -68.9931                                         !
 ! D202  D(37,32,33,70)        174.27                                           !
 ! D203  D(2,32,37,11)         -40.4027                                         !
 ! D204  D(2,32,37,28)          78.3775                                         !
 ! D205  D(2,32,37,36)        -166.3463                                         !
 ! D206  D(24,32,37,11)       -157.8971                                         !
 ! D207  D(24,32,37,28)        -39.1169                                         !
 ! D208  D(24,32,37,36)         76.1592                                         !
 ! D209  D(33,32,37,11)         82.5745                                         !
 ! D210  D(33,32,37,28)       -158.6453                                         !
 ! D211  D(33,32,37,36)        -43.3692                                         !
 ! D212  D(32,33,34,13)         71.474                                          !
 ! D213  D(32,33,34,29)       -165.1885                                         !
 ! D214  D(32,33,34,35)        -51.7561                                         !
 ! D215  D(69,33,34,13)       -167.7446                                         !
 ! D216  D(69,33,34,29)        -44.4071                                         !
 ! D217  D(69,33,34,35)         69.0253                                         !
 ! D218  D(70,33,34,13)        -50.8802                                         !
 ! D219  D(70,33,34,29)         72.4574                                         !
 ! D220  D(70,33,34,35)       -174.1103                                         !
 ! D221  D(13,34,35,12)         43.9238                                         !
 ! D222  D(13,34,35,31)        156.3464                                         !
 ! D223  D(13,34,35,36)        -79.7674                                         !
 ! D224  D(29,34,35,12)        -73.7119                                         !
 ! D225  D(29,34,35,31)         38.7108                                         !
 ! D226  D(29,34,35,36)        162.597                                          !
 ! D227  D(33,34,35,12)        167.9946                                         !
 ! D228  D(33,34,35,31)        -79.5828                                         !
 ! D229  D(33,34,35,36)         44.3034                                         !
 ! D230  D(12,35,36,10)         87.7208                                         !
 ! D231  D(12,35,36,25)        -27.3234                                         !
 ! D232  D(12,35,36,37)       -155.4759                                         !
 ! D233  D(31,35,36,10)        -34.9258                                         !
 ! D234  D(31,35,36,25)       -149.97                                           !
 ! D235  D(31,35,36,37)         81.8775                                         !
 ! D236  D(34,35,36,10)       -152.3523                                         !
 ! D237  D(34,35,36,25)         92.6035                                         !
 ! D238  D(34,35,36,37)        -35.549                                          !
 ! D239  D(10,36,37,11)         24.8296                                         !
 ! D240  D(10,36,37,28)       -100.3755                                         !
 ! D241  D(10,36,37,32)        149.8762                                         !
 ! D242  D(25,36,37,11)        137.9838                                         !
 ! D243  D(25,36,37,28)         12.7787                                         !
 ! D244  D(25,36,37,32)        -96.9696                                         !
 ! D245  D(35,36,37,11)        -91.0367                                         !
 ! D246  D(35,36,37,28)        143.7582                                         !
 ! D247  D(35,36,37,32)         34.0099                                         !
 --------------------------------------------------------------------------------
 Stoichiometry    C28H37NO4
 Framework group  C1[X(C28H37NO4)]
 Deg. of freedom   204
 Full point group                 C1      NOp   1
 Largest Abelian subgroup         C1      NOp   1
 Largest concise Abelian subgroup C1      NOp   1
                         Standard orientation:                         
 ---------------------------------------------------------------------
 Center     Atomic      Atomic             Coordinates (Angstroms)
 Number     Number       Type             X           Y           Z
 ---------------------------------------------------------------------
      1          6           0       -0.168399   -1.982208    3.391052
      2          8           0        0.890419   -1.093868    3.059346
      3          1           0        4.815693    0.935130   -0.388612
      4          6           0        6.648004   -0.656331   -1.477061
      5          6           0        4.957455    0.205227   -3.123860
      6          6           0        5.154595   -0.597638   -1.831821
      7          6           0        2.150601   -3.339323    0.028996
      8          6           0        2.119448   -1.065814   -1.152833
      9          6           0        2.028345   -1.835075    0.186739
     10          1           0        3.065344    1.795919    0.524525
     11          1           0        2.559962    0.580608    2.428414
     12          8           0        0.934112    2.261956   -1.373965
     13          1           0       -0.570596    0.505092   -0.553070
     14          6           0       -4.753016   -1.575706   -0.828031
     15          6           0       -5.539298   -2.683178   -1.127228
     16          6           0       -6.923737   -2.546911   -1.279734
     17          6           0       -7.515608   -1.291925   -1.129163
     18          6           0       -6.727661   -0.182164   -0.828803
     19          8           0       -3.266553    3.343499    0.215893
     20          6           0       -5.334944   -0.302245   -0.674149
     21          6           0       -4.559900    0.897663   -0.361122
     22          6           0       -3.228120    0.987753   -0.198058
     23          6           0       -2.603976    2.295797    0.126374
     24          8           0        0.717184   -1.548828    0.761611
     25          6           0        2.857840    0.263192   -0.934717
     26          6           0        4.348307   -0.027498   -0.643148
     27          6           0        4.408150   -0.960756    0.599876
     28          6           0        3.015788   -1.196108    1.186533
     29          7           0       -1.261499    2.306029    0.331005
     30          6           0       -0.573261    3.559912    0.668850
     31          6           0        0.885086    3.129672    0.875966
     32          6           0        0.836071   -0.534767    1.747360
     33          6           0       -0.342537    0.411316    1.607157
     34          6           0       -0.329098    1.169563    0.277817
     35          6           0        1.013797    1.866522    0.002388
     36          6           0        2.299081    1.045894    0.286395
     37          6           0        2.220648    0.086334    1.514808
     38          1           0        0.122152   -2.471090    4.324195
     39          1           0       -1.117744   -1.453538    3.552942
     40          1           0       -0.306626   -2.738625    2.611329
     41          1           0        7.226007   -1.111025   -2.289660
     42          1           0        7.043160    0.354268   -1.310480
     43          1           0        6.832513   -1.239861   -0.569055
     44          1           0        3.931584    0.140415   -3.499632
     45          1           0        5.189830    1.266198   -2.963130
     46          1           0        5.622636   -0.164147   -3.912827
     47          1           0        4.816818   -1.628288   -2.016517
     48          1           0        2.018004   -3.837435    0.994816
     49          1           0        1.391043   -3.716610   -0.664775
     50          1           0        3.135465   -3.604343   -0.370561
     51          1           0        1.104215   -0.908385   -1.529311
     52          1           0        2.648143   -1.661450   -1.905139
     53          1           0        1.696486    2.844046   -1.559704
     54          1           0       -3.679908   -1.699469   -0.710727
     55          1           0       -5.073469   -3.658615   -1.242098
     56          1           0       -7.534438   -3.415129   -1.513527
     57          1           0       -8.590199   -1.176766   -1.245169
     58          1           0       -7.189074    0.795879   -0.711263
     59          1           0       -5.130185    1.818754   -0.248871
     60          1           0       -2.594394    0.113040   -0.295341
     61          1           0        2.765582    0.889431   -1.821248
     62          1           0        4.838092   -1.932752    0.325939
     63          1           0        5.063371   -0.548205    1.374588
     64          1           0        3.078393   -1.819254    2.082810
     65          1           0       -1.022571    4.018214    1.554648
     66          1           0       -0.675867    4.266174   -0.161109
     67          1           0        1.599389    3.899782    0.568315
     68          1           0        1.086724    2.891968    1.926152
     69          1           0       -0.316008    1.122192    2.439453
     70          1           0       -1.282312   -0.143600    1.690082
 ---------------------------------------------------------------------
 Rotational constants (GHZ):           0.2121301           0.0709715           0.0653757
 Standard basis: 6-311G(d,p) (5D, 7F)
 There are   849 symmetry adapted cartesian basis functions of A   symmetry.
 There are   816 symmetry adapted basis functions of A   symmetry.
   816 basis functions,  1352 primitive gaussians,   849 cartesian basis functions
   122 alpha electrons      122 beta electrons
       nuclear repulsion energy      3650.9527948390 Hartrees.
 NAtoms=   70 NActive=   70 NUniq=   70 SFac= 1.00D+00 NAtFMM=   60 NAOKFM=T Big=T
 Integral buffers will be    131072 words long.
 Regular integral format.
 Two-electron integral symmetry is turned on.
 Using the following non-standard input for PCM:
 radii=bondi
 --- end of non-standard input.
 ------------------------------------------------------------------------------
 Polarizable Continuum Model (PCM)
 =================================
 Model                : PCM.
 Atomic radii         : Bondi.
 Polarization charges : Total charges.
 Charge compensation  : None.
 Solution method      : On-the-fly selection.
 Cavity type          : Scaled VdW (van der Waals Surface) (Alpha=1.100).
 Cavity algorithm     : GePol (No added spheres)
                        Default sphere list used, NSphG=   70.
                        Lebedev-Laikov grids with approx.  5.0 points / Ang**2.
                        Smoothing algorithm: York/Karplus (Gamma=1.0000).
                        Polarization charges: spherical gaussians, with
                                              point-specific exponents (IZeta= 3).
                        Self-potential: point-specific (ISelfS= 7).
                        Self-field    : sphere-specific E.n sum rule (ISelfD= 2).
 Solvent              : Methanol, Eps=  32.613000 Eps(inf)=   1.765709
 ------------------------------------------------------------------------------
 One-electron integrals computed using PRISM.
 NBasis=   816 RedAO= T EigKep=  1.72D-04  NBF=   816
 NBsUse=   816 1.00D-06 EigRej= -1.00D+00 NBFU=   816
 Initial guess from the checkpoint file:  "Revised-SAH-42C-3-conf-6.chk"
 B after Tr=     0.000000   -0.000000    0.000000
         Rot=    1.000000   -0.000000    0.000000    0.000000 Ang=   0.00 deg.
 Requested convergence on RMS density matrix=1.00D-08 within 128 cycles.
 Requested convergence on MAX density matrix=1.00D-06.
 Requested convergence on             energy=1.00D-06.
 No special actions if energy rises.
 Inv3:  Mode=1 IEnd=    51592827.
 Iteration    1 A*A^-1 deviation from unit magnitude is 3.66D-15 for   1116.
 Iteration    1 A*A^-1 deviation from orthogonality  is 3.55D-15 for   3877   1164.
 Iteration    1 A^-1*A deviation from unit magnitude is 3.66D-15 for   1116.
 Iteration    1 A^-1*A deviation from orthogonality  is 5.43D-13 for   2259   2227.
 Error on total polarization charges =  0.05663
 SCF Done:  E(RB3LYP) =  -1445.30985073     A.U. after   10 cycles
            NFock= 10  Conv=0.71D-08     -V/T= 2.0043
 DoSCS=F DFT=T ScalE2(SS,OS)=  1.000000  1.000000
 ExpMin= 1.03D-01 ExpMax= 8.59D+03 ExpMxC= 1.30D+03 IAcc=3 IRadAn=         5 AccDes= 0.00D+00
 HarFok:  IExCor=  205 AccDes= 0.00D+00 IRadAn=         5 IDoV=-2 UseB2=F ITyADJ=14
 ICtDFT= 12500011 ScaDFX=  1.000000  1.000000  1.000000  1.000000
 GSVD:  LWork=       -1353 too small for GESVD, short by        5940 words or        5940 for optimal perf.
 Range of M.O.s used for correlation:    34   816
 NBasis=   816 NAE=   122 NBE=   122 NFC=    33 NFV=     0
 NROrb=    783 NOA=    89 NOB=    89 NVA=   694 NVB=   694

 **** Warning!!: The largest alpha MO coefficient is  0.13457220D+02

 NEqPCM:  Using non-equilibrium solvation (IEInf=1, Eps=  32.6130, EpsInf=   1.7657)
 Inv3:  Mode=1 IEnd=    51592827.
 Iteration    1 A*A^-1 deviation from unit magnitude is 4.00D-15 for    592.
 Iteration    1 A*A^-1 deviation from orthogonality  is 2.89D-15 for   2164   1649.
 Iteration    1 A^-1*A deviation from unit magnitude is 3.77D-15 for    592.
 Iteration    1 A^-1*A deviation from orthogonality  is 8.86D-13 for   2279   2227.
 Orbital symmetries:
       Occupied  (A) (A) (A) (A) (A) (A) (A) (A) (A) (A) (A) (A)
                 (A) (A) (A) (A) (A) (A) (A) (A) (A) (A) (A) (A)
                 (A) (A) (A) (A) (A) (A) (A) (A) (A) (A) (A) (A)
                 (A) (A) (A) (A) (A) (A) (A) (A) (A) (A) (A) (A)
                 (A) (A) (A) (A) (A) (A) (A) (A) (A) (A) (A) (A)
                 (A) (A) (A) (A) (A) (A) (A) (A) (A) (A) (A) (A)
                 (A) (A) (A) (A) (A) (A) (A) (A) (A) (A) (A) (A)
                 (A) (A) (A) (A) (A) (A) (A) (A) (A) (A) (A) (A)
                 (A) (A) (A) (A) (A) (A) (A) (A) (A) (A) (A) (A)
                 (A) (A) (A) (A) (A) (A) (A) (A) (A) (A) (A) (A)
                 (A) (A)
       Virtual   (A) (A) (A) (A) (A) (A) (A) (A) (A) (A) (A) (A)
                 (A) (A) (A) (A) (A) (A) (A) (A) (A) (A) (A) (A)
                 (A) (A) (A) (A) (A) (A) (A) (A) (A) (A) (A) (A)
                 (A) (A) (A) (A) (A) (A) (A) (A) (A) (A) (A) (A)
                 (A) (A) (A) (A) (A) (A) (A) (A) (A) (A) (A) (A)
                 (A) (A) (A) (A) (A) (A) (A) (A) (A) (A) (A) (A)
                 (A) (A) (A) (A) (A) (A) (A) (A) (A) (A) (A) (A)
                 (A) (A) (A) (A) (A) (A) (A) (A) (A) (A) (A) (A)
                 (A) (A) (A) (A) (A) (A) (A) (A) (A) (A) (A) (A)
                 (A) (A) (A) (A) (A) (A) (A) (A) (A) (A) (A) (A)
                 (A) (A) (A) (A) (A) (A) (A) (A) (A) (A) (A) (A)
                 (A) (A) (A) (A) (A) (A) (A) (A) (A) (A) (A) (A)
                 (A) (A) (A) (A) (A) (A) (A) (A) (A) (A) (A) (A)
                 (A) (A) (A) (A) (A) (A) (A) (A) (A) (A) (A) (A)
                 (A) (A) (A) (A) (A) (A) (A) (A) (A) (A) (A) (A)
                 (A) (A) (A) (A) (A) (A) (A) (A) (A) (A) (A) (A)
                 (A) (A) (A) (A) (A) (A) (A) (A) (A) (A) (A) (A)
                 (A) (A) (A) (A) (A) (A) (A) (A) (A) (A) (A) (A)
                 (A) (A) (A) (A) (A) (A) (A) (A) (A) (A) (A) (A)
                 (A) (A) (A) (A) (A) (A) (A) (A) (A) (A) (A) (A)
                 (A) (A) (A) (A) (A) (A) (A) (A) (A) (A) (A) (A)
                 (A) (A) (A) (A) (A) (A) (A) (A) (A) (A) (A) (A)
                 (A) (A) (A) (A) (A) (A) (A) (A) (A) (A) (A) (A)
                 (A) (A) (A) (A) (A) (A) (A) (A) (A) (A) (A) (A)
                 (A) (A) (A) (A) (A) (A) (A) (A) (A) (A) (A) (A)
                 (A) (A) (A) (A) (A) (A) (A) (A) (A) (A) (A) (A)
                 (A) (A) (A) (A) (A) (A) (A) (A) (A) (A) (A) (A)
                 (A) (A) (A) (A) (A) (A) (A) (A) (A) (A) (A) (A)
                 (A) (A) (A) (A) (A) (A) (A) (A) (A) (A) (A) (A)
                 (A) (A) (A) (A) (A) (A) (A) (A) (A) (A) (A) (A)
                 (A) (A) (A) (A) (A) (A) (A) (A) (A) (A) (A) (A)
                 (A) (A) (A) (A) (A) (A) (A) (A) (A) (A) (A) (A)
                 (A) (A) (A) (A) (A) (A) (A) (A) (A) (A) (A) (A)
                 (A) (A) (A) (A) (A) (A) (A) (A) (A) (A) (A) (A)
                 (A) (A) (A) (A) (A) (A) (A) (A) (A) (A) (A) (A)
                 (A) (A) (A) (A) (A) (A) (A) (A) (A) (A) (A) (A)
                 (A) (A) (A) (A) (A) (A) (A) (A) (A) (A) (A) (A)
                 (A) (A) (A) (A) (A) (A) (A) (A) (A) (A) (A) (A)
                 (A) (A) (A) (A) (A) (A) (A) (A) (A) (A) (A) (A)
                 (A) (A) (A) (A) (A) (A) (A) (A) (A) (A) (A) (A)
                 (A) (A) (A) (A) (A) (A) (A) (A) (A) (A) (A) (A)
                 (A) (A) (A) (A) (A) (A) (A) (A) (A) (A) (A) (A)
                 (A) (A) (A) (A) (A) (A) (A) (A) (A) (A) (A) (A)
                 (A) (A) (A) (A) (A) (A) (A) (A) (A) (A) (A) (A)
                 (A) (A) (A) (A) (A) (A) (A) (A) (A) (A) (A) (A)
                 (A) (A) (A) (A) (A) (A) (A) (A) (A) (A) (A) (A)
                 (A) (A) (A) (A) (A) (A) (A) (A) (A) (A) (A) (A)
                 (A) (A) (A) (A) (A) (A) (A) (A) (A) (A) (A) (A)
                 (A) (A) (A) (A) (A) (A) (A) (A) (A) (A) (A) (A)
                 (A) (A) (A) (A) (A) (A) (A) (A) (A) (A) (A) (A)
                 (A) (A) (A) (A) (A) (A) (A) (A) (A) (A) (A) (A)
                 (A) (A) (A) (A) (A) (A) (A) (A) (A) (A) (A) (A)
                 (A) (A) (A) (A) (A) (A) (A) (A) (A) (A) (A) (A)
                 (A) (A) (A) (A) (A) (A) (A) (A) (A) (A) (A) (A)
                 (A) (A) (A) (A) (A) (A) (A) (A) (A) (A) (A) (A)
                 (A) (A) (A) (A) (A) (A) (A) (A) (A) (A) (A) (A)
                 (A) (A) (A) (A) (A) (A) (A) (A) (A) (A) (A) (A)
                 (A) (A) (A) (A) (A) (A) (A) (A) (A) (A)
    40 initial guesses have been made.
 Convergence on wavefunction:    0.001000000000000
 Iteration     1 Dimension    40 NMult     0 NNew     40
 CISAX will form    40 AO SS matrices at one time.
 New state      1 was old state      4
 New state      2 was old state      1
 New state      3 was old state      5
 New state      4 was old state      3
 New state      5 was old state      2
 New state      6 was old state      7
 New state      7 was old state      6
 New state      8 was old state      9
 New state      9 was old state     10
 New state     10 was old state     12
 Iteration     2 Dimension    60 NMult    40 NNew     20
 New state      1 was old state      2
 New state      2 was old state      1
 New state      3 was old state      5
 New state      4 was old state      3
 New state      5 was old state      4
 New state      6 was old state      7
 New state      7 was old state      6
 New state      8 was old state     10
 New state      9 was old state      8
 New state     10 was old state      9
 Iteration     3 Dimension    80 NMult    60 NNew     20
 Iteration     4 Dimension   100 NMult    80 NNew     20
 Iteration     5 Dimension   112 NMult   100 NNew     12
 ***********************************************************************
 Excited states from <AA,BB:AA,BB> singles matrix:
 ***********************************************************************
 
 Ground to excited state transition densities written to RWF  633
 Ground to excited state transition electric dipole moments (Au):
       state          X           Y           Z        Dip. S.      Osc.
         1        -2.1998     -1.1883     -0.5255      6.5273      0.6585
         2         0.4748      0.2962      0.1389      0.3324      0.0346
         3         0.9132      1.1932      0.3141      2.3562      0.2546
         4        -0.2805      0.1276     -0.0129      0.0951      0.0107
         5        -0.0263      0.0471     -0.0061      0.0029      0.0003
         6         0.2125     -0.0250     -0.0000      0.0458      0.0057
         7        -0.0328     -0.0437      0.0216      0.0035      0.0004
         8         1.1644     -0.0762      0.1400      1.3812      0.1856
         9        -0.0400      0.0012      0.0127      0.0018      0.0002
        10        -0.0992      0.0304      0.0128      0.0109      0.0015
 Ground to excited state transition velocity dipole moments (Au):
       state          X           Y           Z        Dip. S.      Osc.
         1         0.3237      0.1781      0.0779      0.1426      0.6281
         2        -0.0724     -0.0458     -0.0208      0.0078      0.0332
         3        -0.1507     -0.1951     -0.0514      0.0634      0.2608
         4         0.0482     -0.0204      0.0023      0.0027      0.0109
         5         0.0035     -0.0078      0.0003      0.0001      0.0003
         6        -0.0371      0.0045      0.0009      0.0014      0.0050
         7         0.0045      0.0077     -0.0035      0.0001      0.0003
         8        -0.2328      0.0243     -0.0263      0.0555      0.1836
         9         0.0070     -0.0005     -0.0022      0.0001      0.0002
        10         0.0211     -0.0058     -0.0032      0.0005      0.0016
 Ground to excited state transition magnetic dipole moments (Au):
       state          X           Y           Z
         1         0.3901      0.4576     -2.7083
         2         0.0467     -0.5015      0.5691
         3        -0.2390     -0.3559      1.9839
         4        -0.0629     -0.0753      0.4794
         5        -0.0071      0.0043      0.0568
         6        -0.0218     -0.0164     -0.0124
         7        -0.0015      0.0279     -0.0330
         8         0.1481      0.1932     -1.2384
         9         0.0040      0.0436     -0.0234
        10         0.0249      0.0521      0.0125
 Ground to excited state transition velocity quadrupole moments (Au):
       state          XX          YY          ZZ          XY          XZ          YZ
         1        -3.8490      0.0870      0.0439     -1.3054     -0.7492     -0.1993
         2         0.8820     -0.0035      0.0056      0.3807      0.1993      0.0405
         3         2.7336     -0.0025      0.1169      1.9030      0.6647      0.2287
         4        -1.0557      0.0670      0.0019      0.1290     -0.1055      0.0249
         5         0.0669      0.0064      0.0250      0.0853      0.0221      0.0044
         6         0.1187     -0.0284     -0.0043     -0.1909     -0.0127     -0.0362
         7        -0.0614      0.0341      0.0002      0.0668     -0.0211      0.0101
         8         4.3944     -0.5114     -0.0021     -0.1428      0.5281     -0.0878
         9         0.0271      0.0035      0.0126      0.0289     -0.0020     -0.0149
        10         0.1164      0.0442      0.0171      0.0226     -0.0050     -0.0168
 <0|del|b> * <b|rxdel|0> + <0|del|b> * <b|delr+rdel|0>
 Rotatory Strengths (R) in cgs (10**-40 erg-esu-cm/Gauss)
       state          XX          YY          ZZ    R(velocity)    E-M Angle
         1      -228.2642   -111.0017    324.4402     -4.9419       90.17
         2        27.9288    -23.1701     30.3181     11.6922       83.36
         3        -1.7213     -5.6540     22.3172      4.9806       89.62
         4         1.6885     -2.1276     -1.1374     -0.5255       90.84
         5         0.3603     -0.0353     -0.4987     -0.0579       90.00
         6        -0.3679      4.3444     -1.2486      0.9093       49.71
         7         0.4797      0.7262      0.0011      0.4023       38.67
         8        49.3484     25.8320    -65.6039      3.1922       89.47
         9        -0.0614      0.0662      0.1933      0.0660       90.00
        10        -0.7488      0.3464      1.0292      0.2089       81.85
 1/2[<0|r|b>*<b|rxdel|0> + (<0|rxdel|b>*<b|r|0>)*]
 Rotatory Strengths (R) in cgs (10**-40 erg-esu-cm/Gauss)
       state          XX          YY          ZZ     R(length)
         1       606.8654    384.5331  -1006.4499     -5.0171
         2       -15.6942    105.0196    -55.8931     11.1441
         3       154.3675    300.3052   -440.6845      4.6627
         4       -12.4840      6.7930      4.3592     -0.4440
         5        -0.1323     -0.1437      0.2462     -0.0100
         6         3.2816     -0.2901     -0.0001      0.9971
         7        -0.0343      0.8629      0.5058      0.4448
         8      -121.9213     10.4171    122.6233      3.7063
         9         0.1128     -0.0356      0.2101      0.0957
        10         1.7471     -1.1203     -0.1129      0.1713
  1/2[<0|del|b>*<b|r|0> + (<0|r|b>*<b|del|0>)*] (Au)
       state          X           Y           Z        Dip. S.   Osc.(frdel)
         1        -0.7121     -0.2116     -0.0409      0.9647      0.6431
         2        -0.0344     -0.0136     -0.0029      0.0508      0.0339
         3        -0.1376     -0.2328     -0.0162      0.3865      0.2577
         4        -0.0135     -0.0026     -0.0000      0.0162      0.0108
         5        -0.0001     -0.0004     -0.0000      0.0005      0.0003
         6        -0.0079     -0.0001     -0.0000      0.0080      0.0053
         7        -0.0001     -0.0003     -0.0001      0.0006      0.0004
         8        -0.2711     -0.0019     -0.0037      0.2766      0.1844
         9        -0.0003     -0.0000     -0.0000      0.0003      0.0002
        10        -0.0021     -0.0002     -0.0000      0.0023      0.0015

 Excitation energies and oscillator strengths:
 
 Excited State   1:      Singlet-A      4.1179 eV  301.09 nm  f=0.6585  <S**2>=0.000
     121 ->123         0.21472
     122 ->123         0.66587
 This state for optimization and/or second-order correction.
 Total Energy, E(TD-HF/TD-DFT) =  -1445.15852104    
 Copying the excited state density for this state as the 1-particle RhoCI density.
 
 Excited State   2:      Singlet-A      4.2489 eV  291.80 nm  f=0.0346  <S**2>=0.000
     116 ->123        -0.18579
     119 ->123         0.63669
     119 ->125        -0.10187
     120 ->123        -0.15512
     122 ->123        -0.11178
 
 Excited State   3:      Singlet-A      4.4100 eV  281.14 nm  f=0.2546  <S**2>=0.000
     121 ->123         0.66586
     122 ->123        -0.20000
 
 Excited State   4:      Singlet-A      4.5796 eV  270.73 nm  f=0.0107  <S**2>=0.000
     118 ->123         0.63070
     121 ->124        -0.12490
     122 ->124         0.28607
 
 Excited State   5:      Singlet-A      4.7817 eV  259.29 nm  f=0.0003  <S**2>=0.000
     119 ->123         0.16243
     120 ->123         0.68698
 
 Excited State   6:      Singlet-A      5.1250 eV  241.92 nm  f=0.0057  <S**2>=0.000
     116 ->123         0.44581
     117 ->123         0.51638
     119 ->123         0.16918
 
 Excited State   7:      Singlet-A      5.1619 eV  240.19 nm  f=0.0004  <S**2>=0.000
     116 ->123         0.49794
     117 ->123        -0.47585
     119 ->123         0.10853
 
 Excited State   8:      Singlet-A      5.4837 eV  226.09 nm  f=0.1856  <S**2>=0.000
     118 ->123        -0.28677
     118 ->125         0.14869
     122 ->124         0.62428
 
 Excited State   9:      Singlet-A      5.5563 eV  223.14 nm  f=0.0002  <S**2>=0.000
     114 ->123         0.15020
     115 ->123         0.67933
     116 ->123        -0.10127
 
 Excited State  10:      Singlet-A      5.6717 eV  218.60 nm  f=0.0015  <S**2>=0.000
     112 ->123        -0.11822
     113 ->123        -0.23820
     114 ->123         0.62939
     115 ->123        -0.16107
 SavETr:  write IOETrn=   770 NScale= 10 NData=  16 NLR=1 NState=   10 LETran=     190.

 **********************************************************************

            Population analysis using the SCF density.

 **********************************************************************

 Orbital symmetries:
       Occupied  (A) (A) (A) (A) (A) (A) (A) (A) (A) (A) (A) (A)
                 (A) (A) (A) (A) (A) (A) (A) (A) (A) (A) (A) (A)
                 (A) (A) (A) (A) (A) (A) (A) (A) (A) (A) (A) (A)
                 (A) (A) (A) (A) (A) (A) (A) (A) (A) (A) (A) (A)
                 (A) (A) (A) (A) (A) (A) (A) (A) (A) (A) (A) (A)
                 (A) (A) (A) (A) (A) (A) (A) (A) (A) (A) (A) (A)
                 (A) (A) (A) (A) (A) (A) (A) (A) (A) (A) (A) (A)
                 (A) (A) (A) (A) (A) (A) (A) (A) (A) (A) (A) (A)
                 (A) (A) (A) (A) (A) (A) (A) (A) (A) (A) (A) (A)
                 (A) (A) (A) (A) (A) (A) (A) (A) (A) (A) (A) (A)
                 (A) (A)
       Virtual   (A) (A) (A) (A) (A) (A) (A) (A) (A) (A) (A) (A)
                 (A) (A) (A) (A) (A) (A) (A) (A) (A) (A) (A) (A)
                 (A) (A) (A) (A) (A) (A) (A) (A) (A) (A) (A) (A)
                 (A) (A) (A) (A) (A) (A) (A) (A) (A) (A) (A) (A)
                 (A) (A) (A) (A) (A) (A) (A) (A) (A) (A) (A) (A)
                 (A) (A) (A) (A) (A) (A) (A) (A) (A) (A) (A) (A)
                 (A) (A) (A) (A) (A) (A) (A) (A) (A) (A) (A) (A)
                 (A) (A) (A) (A) (A) (A) (A) (A) (A) (A) (A) (A)
                 (A) (A) (A) (A) (A) (A) (A) (A) (A) (A) (A) (A)
                 (A) (A) (A) (A) (A) (A) (A) (A) (A) (A) (A) (A)
                 (A) (A) (A) (A) (A) (A) (A) (A) (A) (A) (A) (A)
                 (A) (A) (A) (A) (A) (A) (A) (A) (A) (A) (A) (A)
                 (A) (A) (A) (A) (A) (A) (A) (A) (A) (A) (A) (A)
                 (A) (A) (A) (A) (A) (A) (A) (A) (A) (A) (A) (A)
                 (A) (A) (A) (A) (A) (A) (A) (A) (A) (A) (A) (A)
                 (A) (A) (A) (A) (A) (A) (A) (A) (A) (A) (A) (A)
                 (A) (A) (A) (A) (A) (A) (A) (A) (A) (A) (A) (A)
                 (A) (A) (A) (A) (A) (A) (A) (A) (A) (A) (A) (A)
                 (A) (A) (A) (A) (A) (A) (A) (A) (A) (A) (A) (A)
                 (A) (A) (A) (A) (A) (A) (A) (A) (A) (A) (A) (A)
                 (A) (A) (A) (A) (A) (A) (A) (A) (A) (A) (A) (A)
                 (A) (A) (A) (A) (A) (A) (A) (A) (A) (A) (A) (A)
                 (A) (A) (A) (A) (A) (A) (A) (A) (A) (A) (A) (A)
                 (A) (A) (A) (A) (A) (A) (A) (A) (A) (A) (A) (A)
                 (A) (A) (A) (A) (A) (A) (A) (A) (A) (A) (A) (A)
                 (A) (A) (A) (A) (A) (A) (A) (A) (A) (A) (A) (A)
                 (A) (A) (A) (A) (A) (A) (A) (A) (A) (A) (A) (A)
                 (A) (A) (A) (A) (A) (A) (A) (A) (A) (A) (A) (A)
                 (A) (A) (A) (A) (A) (A) (A) (A) (A) (A) (A) (A)
                 (A) (A) (A) (A) (A) (A) (A) (A) (A) (A) (A) (A)
                 (A) (A) (A) (A) (A) (A) (A) (A) (A) (A) (A) (A)
                 (A) (A) (A) (A) (A) (A) (A) (A) (A) (A) (A) (A)
                 (A) (A) (A) (A) (A) (A) (A) (A) (A) (A) (A) (A)
                 (A) (A) (A) (A) (A) (A) (A) (A) (A) (A) (A) (A)
                 (A) (A) (A) (A) (A) (A) (A) (A) (A) (A) (A) (A)
                 (A) (A) (A) (A) (A) (A) (A) (A) (A) (A) (A) (A)
                 (A) (A) (A) (A) (A) (A) (A) (A) (A) (A) (A) (A)
                 (A) (A) (A) (A) (A) (A) (A) (A) (A) (A) (A) (A)
                 (A) (A) (A) (A) (A) (A) (A) (A) (A) (A) (A) (A)
                 (A) (A) (A) (A) (A) (A) (A) (A) (A) (A) (A) (A)
                 (A) (A) (A) (A) (A) (A) (A) (A) (A) (A) (A) (A)
                 (A) (A) (A) (A) (A) (A) (A) (A) (A) (A) (A) (A)
                 (A) (A) (A) (A) (A) (A) (A) (A) (A) (A) (A) (A)
                 (A) (A) (A) (A) (A) (A) (A) (A) (A) (A) (A) (A)
                 (A) (A) (A) (A) (A) (A) (A) (A) (A) (A) (A) (A)
                 (A) (A) (A) (A) (A) (A) (A) (A) (A) (A) (A) (A)
                 (A) (A) (A) (A) (A) (A) (A) (A) (A) (A) (A) (A)
                 (A) (A) (A) (A) (A) (A) (A) (A) (A) (A) (A) (A)
                 (A) (A) (A) (A) (A) (A) (A) (A) (A) (A) (A) (A)
                 (A) (A) (A) (A) (A) (A) (A) (A) (A) (A) (A) (A)
                 (A) (A) (A) (A) (A) (A) (A) (A) (A) (A) (A) (A)
                 (A) (A) (A) (A) (A) (A) (A) (A) (A) (A) (A) (A)
                 (A) (A) (A) (A) (A) (A) (A) (A) (A) (A) (A) (A)
                 (A) (A) (A) (A) (A) (A) (A) (A) (A) (A) (A) (A)
                 (A) (A) (A) (A) (A) (A) (A) (A) (A) (A) (A) (A)
                 (A) (A) (A) (A) (A) (A) (A) (A) (A) (A) (A) (A)
                 (A) (A) (A) (A) (A) (A) (A) (A) (A) (A) (A) (A)
                 (A) (A) (A) (A) (A) (A) (A) (A) (A) (A)
 The electronic state is 1-A.
 Alpha  occ. eigenvalues --  -19.12182 -19.12167 -19.12060 -19.07872 -14.33970
 Alpha  occ. eigenvalues --  -10.27033 -10.26958 -10.23360 -10.22216 -10.21289
 Alpha  occ. eigenvalues --  -10.20301 -10.19971 -10.19123 -10.18882 -10.18005
 Alpha  occ. eigenvalues --  -10.17991 -10.17970 -10.17863 -10.17803 -10.17747
 Alpha  occ. eigenvalues --  -10.17481 -10.17416 -10.16958 -10.16808 -10.16776
 Alpha  occ. eigenvalues --  -10.16550 -10.16276 -10.16227 -10.15880 -10.15514
 Alpha  occ. eigenvalues --  -10.15505 -10.14984 -10.14959  -1.07146  -1.03706
 Alpha  occ. eigenvalues --   -1.02762  -1.00875  -0.94223  -0.86766  -0.85938
 Alpha  occ. eigenvalues --   -0.81727  -0.80590  -0.79638  -0.78135  -0.76325
 Alpha  occ. eigenvalues --   -0.75447  -0.75319  -0.74105  -0.72916  -0.71691
 Alpha  occ. eigenvalues --   -0.68558  -0.67912  -0.67624  -0.66036  -0.62967
 Alpha  occ. eigenvalues --   -0.62061  -0.61240  -0.60966  -0.60006  -0.58734
 Alpha  occ. eigenvalues --   -0.57567  -0.55665  -0.54563  -0.53592  -0.52434
 Alpha  occ. eigenvalues --   -0.52245  -0.51596  -0.51183  -0.50469  -0.48177
 Alpha  occ. eigenvalues --   -0.48116  -0.47308  -0.46585  -0.46222  -0.45990
 Alpha  occ. eigenvalues --   -0.44972  -0.44583  -0.44063  -0.43776  -0.43180
 Alpha  occ. eigenvalues --   -0.43100  -0.42511  -0.42333  -0.41940  -0.41689
 Alpha  occ. eigenvalues --   -0.41031  -0.40850  -0.40095  -0.39704  -0.39524
 Alpha  occ. eigenvalues --   -0.38766  -0.38686  -0.38304  -0.38005  -0.37823
 Alpha  occ. eigenvalues --   -0.37708  -0.37536  -0.36627  -0.36418  -0.35554
 Alpha  occ. eigenvalues --   -0.35434  -0.35269  -0.34858  -0.34666  -0.34465
 Alpha  occ. eigenvalues --   -0.34304  -0.33466  -0.32932  -0.32721  -0.31727
 Alpha  occ. eigenvalues --   -0.30853  -0.30069  -0.29452  -0.29166  -0.28659
 Alpha  occ. eigenvalues --   -0.27568  -0.27395  -0.26361  -0.26110  -0.25929
 Alpha  occ. eigenvalues --   -0.24523  -0.23358
 Alpha virt. eigenvalues --   -0.06716  -0.01553   0.01632   0.03094   0.04287
 Alpha virt. eigenvalues --    0.04939   0.05488   0.05871   0.06281   0.06729
 Alpha virt. eigenvalues --    0.07150   0.07540   0.07929   0.08210   0.08709
 Alpha virt. eigenvalues --    0.09208   0.09536   0.10014   0.10124   0.10786
 Alpha virt. eigenvalues --    0.11000   0.11358   0.11522   0.11993   0.12223
 Alpha virt. eigenvalues --    0.12422   0.12867   0.12932   0.13113   0.14080
 Alpha virt. eigenvalues --    0.14315   0.14374   0.14747   0.15096   0.15196
 Alpha virt. eigenvalues --    0.15387   0.15515   0.15595   0.15798   0.16583
 Alpha virt. eigenvalues --    0.16696   0.17561   0.18037   0.18578   0.19161
 Alpha virt. eigenvalues --    0.19579   0.19665   0.19894   0.20390   0.20664
 Alpha virt. eigenvalues --    0.21652   0.21888   0.22442   0.22798   0.23738
 Alpha virt. eigenvalues --    0.23871   0.24110   0.24842   0.25161   0.25380
 Alpha virt. eigenvalues --    0.25553   0.26688   0.26772   0.27144   0.27420
 Alpha virt. eigenvalues --    0.27832   0.28142   0.28865   0.28952   0.29168
 Alpha virt. eigenvalues --    0.29510   0.30681   0.31337   0.31731   0.32027
 Alpha virt. eigenvalues --    0.32546   0.32913   0.33775   0.34152   0.34909
 Alpha virt. eigenvalues --    0.35096   0.35703   0.35888   0.36460   0.37251
 Alpha virt. eigenvalues --    0.37499   0.37726   0.37993   0.38783   0.39275
 Alpha virt. eigenvalues --    0.39457   0.39573   0.39806   0.40364   0.40684
 Alpha virt. eigenvalues --    0.40874   0.41565   0.41888   0.42465   0.42815
 Alpha virt. eigenvalues --    0.43167   0.43538   0.44005   0.44190   0.44500
 Alpha virt. eigenvalues --    0.44823   0.45569   0.45883   0.46234   0.46366
 Alpha virt. eigenvalues --    0.47492   0.47715   0.47810   0.49313   0.49449
 Alpha virt. eigenvalues --    0.49782   0.50479   0.50704   0.51242   0.51430
 Alpha virt. eigenvalues --    0.51972   0.52225   0.52513   0.52860   0.53492
 Alpha virt. eigenvalues --    0.53820   0.54181   0.54699   0.55098   0.55595
 Alpha virt. eigenvalues --    0.55738   0.56269   0.56681   0.56923   0.57456
 Alpha virt. eigenvalues --    0.57922   0.58079   0.58218   0.58542   0.58601
 Alpha virt. eigenvalues --    0.58811   0.58953   0.59547   0.59661   0.59947
 Alpha virt. eigenvalues --    0.60038   0.60389   0.60582   0.60719   0.60899
 Alpha virt. eigenvalues --    0.60955   0.61331   0.61390   0.61647   0.62042
 Alpha virt. eigenvalues --    0.62291   0.62402   0.63074   0.63319   0.63504
 Alpha virt. eigenvalues --    0.63692   0.63744   0.64256   0.64556   0.64975
 Alpha virt. eigenvalues --    0.65239   0.65608   0.66051   0.66268   0.66542
 Alpha virt. eigenvalues --    0.67273   0.67729   0.68164   0.68332   0.68872
 Alpha virt. eigenvalues --    0.69739   0.70216   0.70977   0.71358   0.72123
 Alpha virt. eigenvalues --    0.72659   0.73316   0.73798   0.74118   0.74824
 Alpha virt. eigenvalues --    0.74895   0.75308   0.76605   0.76860   0.77375
 Alpha virt. eigenvalues --    0.78301   0.78546   0.78975   0.79507   0.80223
 Alpha virt. eigenvalues --    0.80873   0.81355   0.82228   0.82558   0.83498
 Alpha virt. eigenvalues --    0.84252   0.85155   0.86428   0.86703   0.87782
 Alpha virt. eigenvalues --    0.88618   0.89620   0.89970   0.90549   0.91392
 Alpha virt. eigenvalues --    0.92142   0.92890   0.93700   0.94111   0.95671
 Alpha virt. eigenvalues --    0.96733   0.97820   0.98873   0.99204   1.00045
 Alpha virt. eigenvalues --    1.00369   1.01045   1.01193   1.02105   1.03517
 Alpha virt. eigenvalues --    1.03797   1.04170   1.05865   1.06101   1.06999
 Alpha virt. eigenvalues --    1.07629   1.08183   1.08521   1.09450   1.09668
 Alpha virt. eigenvalues --    1.10805   1.11327   1.12802   1.13412   1.13679
 Alpha virt. eigenvalues --    1.14023   1.14581   1.15867   1.16625   1.17335
 Alpha virt. eigenvalues --    1.18295   1.18803   1.19911   1.20648   1.21181
 Alpha virt. eigenvalues --    1.21882   1.22606   1.23257   1.23952   1.24880
 Alpha virt. eigenvalues --    1.25037   1.25700   1.26730   1.28330   1.29456
 Alpha virt. eigenvalues --    1.30144   1.31632   1.32930   1.33905   1.34315
 Alpha virt. eigenvalues --    1.35277   1.36637   1.37082   1.37246   1.38614
 Alpha virt. eigenvalues --    1.39016   1.39988   1.41356   1.41902   1.42497
 Alpha virt. eigenvalues --    1.42792   1.43266   1.43727   1.44111   1.44392
 Alpha virt. eigenvalues --    1.44876   1.45376   1.45520   1.46281   1.46449
 Alpha virt. eigenvalues --    1.46895   1.46985   1.47890   1.48005   1.48980
 Alpha virt. eigenvalues --    1.49068   1.49926   1.50301   1.50618   1.51123
 Alpha virt. eigenvalues --    1.51514   1.51871   1.52410   1.53047   1.53727
 Alpha virt. eigenvalues --    1.53893   1.54270   1.54383   1.54689   1.54857
 Alpha virt. eigenvalues --    1.55094   1.55894   1.56459   1.56607   1.57168
 Alpha virt. eigenvalues --    1.57355   1.58093   1.58314   1.59119   1.59328
 Alpha virt. eigenvalues --    1.59815   1.60270   1.60442   1.60878   1.61006
 Alpha virt. eigenvalues --    1.61603   1.62418   1.62821   1.63277   1.63715
 Alpha virt. eigenvalues --    1.63831   1.64526   1.64725   1.65941   1.66457
 Alpha virt. eigenvalues --    1.67258   1.67426   1.67780   1.67997   1.68647
 Alpha virt. eigenvalues --    1.68814   1.69564   1.69777   1.70558   1.70837
 Alpha virt. eigenvalues --    1.72107   1.72198   1.72806   1.73022   1.73359
 Alpha virt. eigenvalues --    1.73788   1.74347   1.74801   1.75188   1.75934
 Alpha virt. eigenvalues --    1.76040   1.76263   1.76975   1.77357   1.77729
 Alpha virt. eigenvalues --    1.78213   1.78444   1.79120   1.79621   1.79872
 Alpha virt. eigenvalues --    1.80191   1.80576   1.81399   1.81716   1.82111
 Alpha virt. eigenvalues --    1.82962   1.83860   1.84110   1.84914   1.85441
 Alpha virt. eigenvalues --    1.85893   1.86221   1.86770   1.87221   1.87739
 Alpha virt. eigenvalues --    1.88489   1.89758   1.90031   1.90393   1.90840
 Alpha virt. eigenvalues --    1.91306   1.91513   1.91607   1.92168   1.92750
 Alpha virt. eigenvalues --    1.92904   1.94444   1.94737   1.95211   1.95510
 Alpha virt. eigenvalues --    1.96280   1.96865   1.97384   1.98042   1.98980
 Alpha virt. eigenvalues --    1.99421   2.00182   2.00568   2.01245   2.01913
 Alpha virt. eigenvalues --    2.03446   2.04222   2.04644   2.05671   2.06179
 Alpha virt. eigenvalues --    2.06679   2.06961   2.08318   2.09068   2.09756
 Alpha virt. eigenvalues --    2.09935   2.11188   2.11652   2.12398   2.12577
 Alpha virt. eigenvalues --    2.13293   2.13424   2.14625   2.15092   2.15826
 Alpha virt. eigenvalues --    2.16246   2.16683   2.17433   2.18302   2.18784
 Alpha virt. eigenvalues --    2.19804   2.20265   2.21145   2.21807   2.22970
 Alpha virt. eigenvalues --    2.23461   2.24875   2.25914   2.26377   2.27139
 Alpha virt. eigenvalues --    2.27831   2.28278   2.28883   2.29825   2.30350
 Alpha virt. eigenvalues --    2.30681   2.31286   2.31619   2.32364   2.33313
 Alpha virt. eigenvalues --    2.33841   2.34434   2.35016   2.36091   2.36251
 Alpha virt. eigenvalues --    2.36410   2.36976   2.37488   2.38065   2.39095
 Alpha virt. eigenvalues --    2.39690   2.40851   2.41547   2.41702   2.42792
 Alpha virt. eigenvalues --    2.43221   2.44357   2.44612   2.45920   2.46430
 Alpha virt. eigenvalues --    2.47137   2.47882   2.48085   2.48662   2.48909
 Alpha virt. eigenvalues --    2.49256   2.50002   2.51131   2.51336   2.52319
 Alpha virt. eigenvalues --    2.53384   2.53755   2.54151   2.54528   2.54812
 Alpha virt. eigenvalues --    2.55316   2.56012   2.57214   2.57754   2.58535
 Alpha virt. eigenvalues --    2.59140   2.59574   2.59996   2.60082   2.60850
 Alpha virt. eigenvalues --    2.61155   2.61288   2.61920   2.62345   2.63427
 Alpha virt. eigenvalues --    2.63621   2.63939   2.64745   2.65194   2.65669
 Alpha virt. eigenvalues --    2.66176   2.66438   2.67588   2.67847   2.68189
 Alpha virt. eigenvalues --    2.68754   2.69117   2.69539   2.69922   2.70300
 Alpha virt. eigenvalues --    2.70765   2.71336   2.73070   2.73563   2.74425
 Alpha virt. eigenvalues --    2.74834   2.76156   2.77261   2.77465   2.77768
 Alpha virt. eigenvalues --    2.78515   2.79525   2.80185   2.80825   2.82298
 Alpha virt. eigenvalues --    2.83153   2.83296   2.83904   2.84675   2.86047
 Alpha virt. eigenvalues --    2.87275   2.87431   2.88215   2.89135   2.89487
 Alpha virt. eigenvalues --    2.90483   2.90702   2.91214   2.91518   2.93598
 Alpha virt. eigenvalues --    2.94254   2.95259   2.95818   2.96986   2.97520
 Alpha virt. eigenvalues --    2.99699   3.00322   3.01277   3.02042   3.02972
 Alpha virt. eigenvalues --    3.04069   3.04192   3.05083   3.06207   3.06824
 Alpha virt. eigenvalues --    3.07856   3.08422   3.09231   3.10743   3.11142
 Alpha virt. eigenvalues --    3.12477   3.13215   3.15617   3.16790   3.17278
 Alpha virt. eigenvalues --    3.18440   3.19248   3.20444   3.21406   3.23037
 Alpha virt. eigenvalues --    3.24143   3.25499   3.25781   3.26866   3.28341
 Alpha virt. eigenvalues --    3.29255   3.30750   3.32227   3.32774   3.32996
 Alpha virt. eigenvalues --    3.33734   3.35639   3.36509   3.38688   3.38980
 Alpha virt. eigenvalues --    3.40279   3.42009   3.46148   3.47489   3.49728
 Alpha virt. eigenvalues --    3.51422   3.51857   3.54294   3.55816   3.57371
 Alpha virt. eigenvalues --    3.58694   3.59709   3.61133   3.64889   3.66343
 Alpha virt. eigenvalues --    3.68322   3.72526   3.74845   3.77868   3.78319
 Alpha virt. eigenvalues --    3.79364   3.80188   3.81036   3.81410   3.82024
 Alpha virt. eigenvalues --    3.82331   3.83293   3.84275   3.84943   3.87811
 Alpha virt. eigenvalues --    3.89761   3.91323   3.93422   3.97895   3.99085
 Alpha virt. eigenvalues --    4.01473   4.02205   4.02972   4.04256   4.07600
 Alpha virt. eigenvalues --    4.09739   4.10987   4.12021   4.12633   4.13543
 Alpha virt. eigenvalues --    4.14205   4.17343   4.19093   4.20547   4.21677
 Alpha virt. eigenvalues --    4.24637   4.25158   4.28242   4.29696   4.31143
 Alpha virt. eigenvalues --    4.33372   4.40957   4.41841   4.47741   4.51028
 Alpha virt. eigenvalues --    4.54327   4.82893   4.86257   4.91599   5.03025
 Alpha virt. eigenvalues --    5.05035   5.05855   5.14759   5.18466   5.22398
 Alpha virt. eigenvalues --    5.31388   5.35986   5.61256   5.62781   5.68464
 Alpha virt. eigenvalues --    5.79094  23.52658  23.68000  23.73811  23.76667
 Alpha virt. eigenvalues --   23.78863  23.82126  23.82926  23.83301  23.84523
 Alpha virt. eigenvalues --   23.85197  23.86121  23.88577  23.91238  23.91942
 Alpha virt. eigenvalues --   23.91968  23.92019  23.92755  23.93644  23.94371
 Alpha virt. eigenvalues --   23.94920  23.98329  24.00117  24.01641  24.04628
 Alpha virt. eigenvalues --   24.09179  24.17546  24.17665  24.21716  35.59218
 Alpha virt. eigenvalues --   49.95744  49.98956  50.01368  50.05185
          Condensed to atoms (all electrons):
 Mulliken charges:
               1
     1  C   -0.126585
     2  O   -0.419243
     3  H    0.116303
     4  C   -0.277388
     5  C   -0.288428
     6  C   -0.182078
     7  C   -0.224592
     8  C   -0.087755
     9  C    0.010245
    10  H    0.138758
    11  H    0.130610
    12  O   -0.453386
    13  H    0.160493
    14  C   -0.080388
    15  C   -0.118184
    16  C   -0.102566
    17  C   -0.116886
    18  C   -0.077222
    19  O   -0.492206
    20  C   -0.095428
    21  C   -0.040103
    22  C   -0.235033
    23  C    0.448608
    24  O   -0.432903
    25  C   -0.177077
    26  C   -0.166836
    27  C   -0.099252
    28  C   -0.192176
    29  N   -0.409551
    30  C    0.003504
    31  C   -0.223908
    32  C    0.244828
    33  C   -0.049487
    34  C   -0.035208
    35  C    0.035810
    36  C   -0.088295
    37  C   -0.117053
    38  H    0.122012
    39  H    0.107342
    40  H    0.108277
    41  H    0.109172
    42  H    0.101990
    43  H    0.108281
    44  H    0.114533
    45  H    0.104300
    46  H    0.108315
    47  H    0.116223
    48  H    0.113397
    49  H    0.113425
    50  H    0.116419
    51  H    0.122597
    52  H    0.123818
    53  H    0.279023
    54  H    0.119953
    55  H    0.122741
    56  H    0.123930
    57  H    0.123102
    58  H    0.118076
    59  H    0.108178
    60  H    0.153668
    61  H    0.116732
    62  H    0.122515
    63  H    0.119369
    64  H    0.123568
    65  H    0.127758
    66  H    0.122924
    67  H    0.138259
    68  H    0.139267
    69  H    0.134109
    70  H    0.136781
 Sum of Mulliken charges =  -0.00000
 Mulliken charges with hydrogens summed into heavy atoms:
               1
     1  C    0.211047
     2  O   -0.419243
     4  C    0.042056
     5  C    0.038720
     6  C   -0.065855
     7  C    0.118649
     8  C    0.158660
     9  C    0.010245
    12  O   -0.174363
    14  C    0.039565
    15  C    0.004556
    16  C    0.021364
    17  C    0.006216
    18  C    0.040854
    19  O   -0.492206
    20  C   -0.095428
    21  C    0.068076
    22  C   -0.081365
    23  C    0.448608
    24  O   -0.432903
    25  C   -0.060344
    26  C   -0.050533
    27  C    0.142632
    28  C   -0.068608
    29  N   -0.409551
    30  C    0.254186
    31  C    0.053618
    32  C    0.244828
    33  C    0.221404
    34  C    0.125285
    35  C    0.035810
    36  C    0.050463
    37  C    0.013557
 Electronic spatial extent (au):  <R**2>=          17525.2398
 Charge=             -0.0000 electrons
 Dipole moment (field-independent basis, Debye):
    X=              6.1634    Y=             -3.5180    Z=              0.1277  Tot=              7.0979
 Quadrupole moment (field-independent basis, Debye-Ang):
   XX=           -186.6201   YY=           -200.1785   ZZ=           -203.5556
   XY=             29.6289   XZ=             -0.4332   YZ=              3.9859
 Traceless Quadrupole moment (field-independent basis, Debye-Ang):
   XX=             10.1646   YY=             -3.3938   ZZ=             -6.7709
   XY=             29.6289   XZ=             -0.4332   YZ=              3.9859
 Octapole moment (field-independent basis, Debye-Ang**2):
  XXX=            -89.4730  YYY=            -49.9213  ZZZ=             28.8088  XYY=             77.5990
  XXY=            -85.9852  XXZ=            -37.8819  XZZ=             13.3340  YZZ=              0.3982
  YYZ=             -0.3078  XYZ=             -6.4541
 Hexadecapole moment (field-independent basis, Debye-Ang**3):
 XXXX=         -15937.6933 YYYY=          -4214.4502 ZZZZ=          -2691.6425 XXXY=            419.1786
 XXXZ=            342.8746 YYYX=            447.1719 YYYZ=            -25.9821 ZZZX=           -105.2762
 ZZZY=            -60.8393 XXYY=          -3570.6917 XXZZ=          -3450.1570 YYZZ=          -1081.6730
 XXYZ=             86.7658 YYXZ=             54.3729 ZZXY=             -0.1610
 N-N= 3.650952794839D+03 E-N=-1.066782356503D+04  KE= 1.439162927426D+03
 1\1\GINC-LOCALHOST\SP\RB3LYP TD-FC\6-311G(d,p)\C28H37N1O4\ADMIN\24-Jun
 -2021\0\\# td=(nstates=10,root=1) b3lyp/6-311g(d,p) guess=read geom=ch
 eck integral(ultrafinegrid) scrf=(iefpcm,read,solvent=methanol)\\Candi
 date Structure: Revised-SAH-42C-3, Conformer: 6, energy calculation wi
 th methanol solvation\\0,1\C,0,2.467321837,5.4981968818,-4.6590591466\
 O,0,2.1701956838,6.8817474119,-4.525729557\H,0,1.6173954736,11.6115832
 901,-1.5700427663\C,0,0.0684576147,11.7121591099,0.5899363821\C,0,2.52
 38493372,11.8440244553,1.1055410193\C,0,1.4206631868,10.9947603528,0.4
 616823913\C,0,1.7306165216,6.656286158,-0.5799608598\C,0,3.2548071834,
 8.7133575841,-0.6887282681\C,0,2.3659497674,7.7124790397,-1.4650595158
 \H,0,2.8876899647,11.0368136702,-3.2115331063\H,0,1.8657570015,9.30413
 30761,-4.356372961\O,0,5.6436160108,10.6750955262,-2.4130118718\H,0,5.
 6951713483,8.2333941862,-2.6580068478\C,0,8.2164971705,4.2928873347,-2
 .5427323031\C,0,8.5159973085,3.0610173617,-1.9708519689\C,0,9.71826062
 2,2.4132241138,-2.2765068328\C,0,10.6188956862,3.0086178893,-3.1610051
 745\C,0,10.3184836034,4.2429143486,-3.7345119682\O,0,8.578162943,8.689
 5331034,-5.3776282442\C,0,9.115402455,4.9074528748,-3.4362085425\C,0,8
 .8558422811,6.201005722,-4.0669285593\C,0,7.7820769024,6.9915510664,-3
 .8925437118\C,0,7.6783074597,8.2795523755,-4.6247156555\O,0,3.22306405
 89,7.0322387875,-2.4315931292\C,0,3.1222041393,10.1110184629,-1.311637
 7589\C,0,1.7075979189,10.6632257361,-1.0201595569\C,0,0.6809682225,9.6
 469061877,-1.5970366436\C,0,1.3816047926,8.5121384922,-2.3451272911\N,
 0,6.5435345451,9.0033315971,-4.444003796\C,0,6.3614404887,10.282511039
 7,-5.144414621\C,0,4.9551579303,10.7301433072,-4.7239685709\C,0,3.0724
 032843,7.6288752823,-3.7104524886\C,0,4.4410703439,7.7244570712,-4.359
 6531067\C,0,5.3806905287,8.6695834628,-3.6072475428\C,0,4.757884868,10
 .0526459061,-3.3538106286\C,0,3.2887854126,10.0778600928,-2.856662331\
 C,0,2.3655819828,8.9656951495,-3.4454652533\H,0,1.593003422,5.04038473
 41,-5.12826816\H,0,3.3419495844,5.3219093701,-5.3000781574\H,0,2.63947
 24104,5.0364053621,-3.6811253942\H,0,-0.1750859281,11.9037638426,1.641
 1853975\H,0,0.0961987145,12.6794311516,0.0714547017\H,0,-0.7503652388,
 11.1266879377,0.1589144049\H,0,3.4731591454,11.3042713659,1.1782952479
 \H,0,2.7012185024,12.758622784,0.5245587225\H,0,2.2363318071,12.145628
 8264,2.1193158987\H,0,1.3489422113,10.0495677422,1.0201745541\H,0,1.16
 47825768,5.9401771433,-1.184549582\H,0,2.4983896018,6.1100782945,-0.02
 06995951\H,0,1.0508007824,7.1199581093,0.1430168342\H,0,4.2872857933,8
 .3524014254,-0.7190257021\H,0,2.9627280947,8.7514703419,0.3664973079\H
 ,0,5.3805641542,11.6126889507,-2.3338673518\H,0,7.2775991868,4.7811617
 596,-2.2963647492\H,0,7.810446382,2.6010041515,-1.2836440902\H,0,9.948
 2594779,1.450557282,-1.8272958166\H,0,11.5547921249,2.5124737324,-3.40
 47309801\H,0,11.0203950307,4.7067815678,-4.424029251\H,0,9.62134533,6.
 559644354,-4.7536727527\H,0,6.9792078393,6.7013514349,-3.2236787495\H,
 0,3.8766978043,10.7768868119,-0.8945239024\H,0,0.0811432088,9.21073352
 ,-0.7879433037\H,0,-0.0304088621,10.1394385302,-2.2686360707\H,0,0.646
 6757792,7.8291154567,-2.7797573951\H,0,6.4715100216,10.1482679565,-6.2
 244253594\H,0,7.1295400802,10.9897203555,-4.8157154921\H,0,4.865046244
 8,11.8181223629,-4.6456868408\H,0,4.1963993076,10.3856268795,-5.435055
 9343\H,0,4.3115506081,8.0730742486,-5.3894375258\H,0,4.902206923,6.733
 2477069,-4.4129541264\\Version=ES64L-G16RevA.03\State=1-A\HF=-1445.309
 8507\RMSD=7.091e-09\PG=C01 [X(C28H37N1O4)]\\@


 YOU KNOW YOU'RE A TEACHER WHEN YOU SAY 2, WRITE 3, AND MEAN 4.
 -- RONALD ANSTROM, HIGH SCHOOL TEACHER, UNDERWOOD, N.D. 1974
 Job cpu time:       0 days 17 hours  4 minutes  9.2 seconds.
 Elapsed time:       0 days  1 hours 42 minutes 45.3 seconds.
 File lengths (MBytes):  RWF=   4655 Int=      0 D2E=      0 Chk=   1379 Scr=      1
 Normal termination of Gaussian 16 at Thu Jun 24 00:34:44 2021.
